Sconfig 0.00000 tap: on snoop: rts? on errs? on
Sconfig 0.00000 salvage: on !bd replies? on
Sconfig 0.00000 grat error: on grat reply: on
Sconfig 0.00000 $reply for props: on ring 0 search: on
Sconfig 0.00000 using MOBICACHE
s 10.000000000 _0_ AGT  --- 0 tcp 40 [0 0 0 0] ------- [0:0 7:0 32 0] [0 0] 0 0
r 10.000000000 _0_ RTR  --- 0 tcp 40 [0 0 0 0] ------- [0:0 7:0 32 0] [0 0] 0 0
s 10.008416070 _0_ RTR  --- 1 DSR 32 [0 0 0 0] ------- [0:255 7:255 32 0] 1 [1 1] [0 1 0 0->0] [0 0 0 0->0]
r 10.009796628 _1_ RTR  --- 1 DSR 32 [0 ffffffff 0 800] ------- [0:255 7:255 32 0] 1 [1 1] [0 1 0 0->0] [0 0 0 0->0]
r 10.009796814 _5_ RTR  --- 1 DSR 32 [0 ffffffff 0 800] ------- [0:255 7:255 32 0] 1 [1 1] [0 1 0 0->0] [0 0 0 0->0]
s 10.074991264 _0_ RTR  --- 3 DSR 32 [0 0 0 0] ------- [0:255 7:255 32 0] 1 [1 2] [0 2 0 0->0] [0 0 0 0->0]
r 10.075851822 _1_ RTR  --- 3 DSR 32 [0 ffffffff 0 800] ------- [0:255 7:255 32 0] 1 [1 2] [0 2 0 0->0] [0 0 0 0->0]
r 10.075852007 _5_ RTR  --- 3 DSR 32 [0 ffffffff 0 800] ------- [0:255 7:255 32 0] 1 [1 2] [0 2 0 0->0] [0 0 0 0->0]
f 10.076212966 _5_ RTR  --- 3 DSR 48 [0 ffffffff 0 800] ------- [0:255 7:255 32 0] 2 [1 2] [0 2 0 0->0] [0 0 0 0->0]
r 10.077521686 _6_ RTR  --- 3 DSR 48 [0 ffffffff 5 800] ------- [0:255 7:255 32 0] 2 [1 2] [0 2 0 0->0] [0 0 0 0->0]
r 10.077521709 _0_ RTR  --- 3 DSR 48 [0 ffffffff 5 800] ------- [0:255 7:255 32 0] 2 [1 2] [0 2 0 0->0] [0 0 0 0->0]
f 10.078072295 _1_ RTR  --- 3 DSR 48 [0 ffffffff 0 800] ------- [0:255 7:255 32 0] 2 [1 2] [0 2 0 0->0] [0 0 0 0->0]
r 10.079480853 _0_ RTR  --- 3 DSR 48 [0 ffffffff 1 800] ------- [0:255 7:255 32 0] 2 [1 2] [0 2 0 0->0] [0 0 0 0->0]
r 10.079480925 _2_ RTR  --- 3 DSR 48 [0 ffffffff 1 800] ------- [0:255 7:255 32 0] 2 [1 2] [0 2 0 0->0] [0 0 0 0->0]
f 10.080822669 _2_ RTR  --- 3 DSR 68 [0 ffffffff 1 800] ------- [0:255 7:255 32 0] 3 [1 2] [0 2 0 0->0] [0 0 0 0->0]
r 10.081951299 _1_ RTR  --- 3 DSR 68 [0 ffffffff 2 800] ------- [0:255 7:255 32 0] 3 [1 2] [0 2 0 0->0] [0 0 0 0->0]
r 10.081951310 _3_ RTR  --- 3 DSR 68 [0 ffffffff 2 800] ------- [0:255 7:255 32 0] 3 [1 2] [0 2 0 0->0] [0 0 0 0->0]
f 10.085680914 _6_ RTR  --- 3 DSR 68 [0 ffffffff 5 800] ------- [0:255 7:255 32 0] 3 [1 2] [0 2 0 0->0] [0 0 0 0->0]
r 10.086869634 _5_ RTR  --- 3 DSR 68 [0 ffffffff 6 800] ------- [0:255 7:255 32 0] 3 [1 2] [0 2 0 0->0] [0 0 0 0->0]
r 10.086869718 _7_ RTR  --- 3 DSR 68 [0 ffffffff 6 800] ------- [0:255 7:255 32 0] 3 [1 2] [0 2 0 0->0] [0 0 0 0->0]
s 10.087584368 _7_ RTR  --- 4 DSR 60 [0 0 0 0] ------- [7:255 0:255 254 6] 4 [0 2] [1 2 4 0->7] [0 0 0 0->0]
f 10.089528057 _3_ RTR  --- 3 DSR 92 [0 ffffffff 2 800] ------- [0:255 7:255 32 0] 4 [1 2] [0 2 0 0->0] [0 0 0 0->0]
r 10.092340995 _6_ RTR  --- 4 DSR 60 [13a 6 7 800] ------- [7:255 0:255 254 6] 4 [0 2] [1 2 4 0->7] [0 0 0 0->0]
f 10.092340995 _6_ RTR  --- 4 DSR 60 [13a 6 7 800] ------- [7:255 0:255 253 5] 4 [0 2] [1 2 4 0->7] [0 0 0 0->0]
r 10.096961035 _5_ RTR  --- 4 DSR 60 [13a 5 6 800] ------- [7:255 0:255 253 5] 4 [0 2] [1 2 4 0->7] [0 0 0 0->0]
f 10.096961035 _5_ RTR  --- 4 DSR 60 [13a 5 6 800] ------- [7:255 0:255 252 0] 4 [0 2] [1 2 4 0->7] [0 0 0 0->0]
r 10.101521238 _0_ RTR  --- 4 DSR 60 [13a 0 5 800] ------- [7:255 0:255 252 0] 4 [0 2] [1 2 4 0->7] [0 0 0 0->0]
SFESTs 10.101521238 _0_ 0 [0 -> 7] 1(1) to 5 [0 |5 6 7 ]
s 10.101521238 _0_ RTR  --- 0 tcp 84 [0 0 0 0] ------- [0:0 7:0 32 5] [0 0] 0 0
r 10.103899468 _5_ RTR  --- 0 tcp 84 [13a 5 0 800] ------- [0:0 7:0 32 5] [0 0] 1 0
f 10.103899468 _5_ RTR  --- 0 tcp 84 [13a 5 0 800] ------- [0:0 7:0 31 6] [0 0] 1 0
r 10.106637628 _6_ RTR  --- 0 tcp 84 [13a 6 5 800] ------- [0:0 7:0 31 6] [0 0] 2 0
f 10.106637628 _6_ RTR  --- 0 tcp 84 [13a 6 5 800] ------- [0:0 7:0 30 7] [0 0] 2 0
r 10.108996040 _7_ RTR  --- 0 tcp 84 [13a 7 6 800] ------- [0:0 7:0 30 7] [0 0] 3 0
r 10.108996040 _7_ AGT  --- 0 tcp 40 [13a 7 6 800] ------- [0:0 7:0 30 7] [0 0] 3 0
s 10.108996040 _7_ AGT  --- 5 ack 40 [0 0 0 0] ------- [7:0 0:0 32 0] [0 0] 0 0
r 10.108996040 _7_ RTR  --- 5 ack 40 [0 0 0 0] ------- [7:0 0:0 32 0] [0 0] 0 0
SFESTs 10.108996040 _7_ 5 [7 -> 0] 1(1) to 6 [7 |6 5 0 ]
s 10.108996040 _7_ RTR  --- 5 ack 84 [0 0 0 0] ------- [7:0 0:0 32 6] [0 0] 0 0
r 10.111474452 _6_ RTR  --- 5 ack 84 [13a 6 7 800] ------- [7:0 0:0 32 6] [0 0] 1 0
f 10.111474452 _6_ RTR  --- 5 ack 84 [13a 6 7 800] ------- [7:0 0:0 31 5] [0 0] 1 0
r 10.114032612 _5_ RTR  --- 5 ack 84 [13a 5 6 800] ------- [7:0 0:0 31 5] [0 0] 2 0
f 10.114032612 _5_ RTR  --- 5 ack 84 [13a 5 6 800] ------- [7:0 0:0 30 0] [0 0] 2 0
r 10.116490842 _0_ RTR  --- 5 ack 84 [13a 0 5 800] ------- [7:0 0:0 30 0] [0 0] 3 0
r 10.116490842 _0_ AGT  --- 5 ack 40 [13a 0 5 800] ------- [7:0 0:0 30 0] [0 0] 3 0
s 10.116490842 _0_ AGT  --- 6 tcp 1040 [0 0 0 0] ------- [0:0 7:0 32 0] [1 0] 0 0
r 10.116490842 _0_ RTR  --- 6 tcp 1040 [0 0 0 0] ------- [0:0 7:0 32 0] [1 0] 0 0
SFESTs 10.116490842 _0_ 6 [0 -> 7] 1(1) to 5 [0 |5 6 7 ]
s 10.116490842 _0_ AGT  --- 7 tcp 1040 [0 0 0 0] ------- [0:0 7:0 32 0] [2 0] 0 0
r 10.116490842 _0_ RTR  --- 7 tcp 1040 [0 0 0 0] ------- [0:0 7:0 32 0] [2 0] 0 0
SFESTs 10.116490842 _0_ 7 [0 -> 7] 1(1) to 5 [0 |5 6 7 ]
s 10.116490842 _0_ RTR  --- 6 tcp 1084 [0 0 0 0] ------- [0:0 7:0 32 5] [1 0] 0 0
s 10.116490842 _0_ RTR  --- 7 tcp 1084 [0 0 0 0] ------- [0:0 7:0 32 5] [2 0] 0 0
r 10.126829072 _5_ RTR  --- 6 tcp 1084 [13a 5 0 800] ------- [0:0 7:0 32 5] [1 0] 1 0
f 10.126829072 _5_ RTR  --- 6 tcp 1084 [13a 5 0 800] ------- [0:0 7:0 31 6] [1 0] 1 0
r 10.137188045 _5_ RTR  --- 7 tcp 1084 [13a 5 0 800] ------- [0:0 7:0 32 5] [2 0] 1 0
f 10.137188045 _5_ RTR  --- 7 tcp 1084 [13a 5 0 800] ------- [0:0 7:0 31 6] [2 0] 1 0
r 10.147626205 _6_ RTR  --- 6 tcp 1084 [13a 6 5 800] ------- [0:0 7:0 31 6] [1 0] 2 0
f 10.147626205 _6_ RTR  --- 6 tcp 1084 [13a 6 5 800] ------- [0:0 7:0 30 7] [1 0] 2 0
r 10.157805085 _6_ RTR  --- 7 tcp 1084 [13a 6 5 800] ------- [0:0 7:0 31 6] [2 0] 2 0
f 10.157805085 _6_ RTR  --- 7 tcp 1084 [13a 6 5 800] ------- [0:0 7:0 30 7] [2 0] 2 0
r 10.168343497 _7_ RTR  --- 6 tcp 1084 [13a 7 6 800] ------- [0:0 7:0 30 7] [1 0] 3 0
r 10.168343497 _7_ AGT  --- 6 tcp 1040 [13a 7 6 800] ------- [0:0 7:0 30 7] [1 0] 3 0
s 10.168343497 _7_ AGT  --- 8 ack 40 [0 0 0 0] ------- [7:0 0:0 32 0] [1 0] 0 0
r 10.168343497 _7_ RTR  --- 8 ack 40 [0 0 0 0] ------- [7:0 0:0 32 0] [1 0] 0 0
SFESTs 10.168343497 _7_ 8 [7 -> 0] 1(1) to 6 [7 |6 5 0 ]
s 10.168343497 _7_ RTR  --- 8 ack 84 [0 0 0 0] ------- [7:0 0:0 32 6] [1 0] 0 0
r 10.170521908 _6_ RTR  --- 8 ack 84 [13a 6 7 800] ------- [7:0 0:0 32 6] [1 0] 1 0
f 10.170521908 _6_ RTR  --- 8 ack 84 [13a 6 7 800] ------- [7:0 0:0 31 5] [1 0] 1 0
r 10.172471455 _4_ RTR  --- 3 DSR 92 [0 ffffffff 3 800] ------- [0:255 7:255 32 0] 4 [1 2] [0 2 0 0->0] [0 0 0 0->0]
s 10.172471455 _4_ RTR  --- 9 DSR 72 [0 0 0 0] ------- [4:255 0:255 255 3] 5 [0 2] [1 2 6 0->7] [0 0 0 0->0]
r 10.172471577 _2_ RTR  --- 3 DSR 92 [0 ffffffff 3 800] ------- [0:255 7:255 32 0] 4 [1 2] [0 2 0 0->0] [0 0 0 0->0]
r 10.177382086 _3_ RTR  --- 9 DSR 72 [13a 3 4 800] ------- [4:255 0:255 255 3] 5 [0 2] [1 2 6 0->7] [0 0 0 0->0]
f 10.177382086 _3_ RTR  --- 9 DSR 72 [13a 3 4 800] ------- [4:255 0:255 254 2] 5 [0 2] [1 2 6 0->7] [0 0 0 0->0]
r 10.182517572 _2_ RTR  --- 9 DSR 72 [13a 2 3 800] ------- [4:255 0:255 254 2] 5 [0 2] [1 2 6 0->7] [0 0 0 0->0]
f 10.182517572 _2_ RTR  --- 9 DSR 72 [13a 2 3 800] ------- [4:255 0:255 253 1] 5 [0 2] [1 2 6 0->7] [0 0 0 0->0]
r 10.189579353 _1_ RTR  --- 9 DSR 72 [13a 1 2 800] ------- [4:255 0:255 253 1] 5 [0 2] [1 2 6 0->7] [0 0 0 0->0]
f 10.189579353 _1_ RTR  --- 9 DSR 72 [13a 1 2 800] ------- [4:255 0:255 252 0] 5 [0 2] [1 2 6 0->7] [0 0 0 0->0]
r 10.195374256 _0_ RTR  --- 9 DSR 72 [13a 0 1 800] ------- [4:255 0:255 252 0] 5 [0 2] [1 2 6 0->7] [0 0 0 0->0]
r 10.205978008 _7_ RTR  --- 7 tcp 1084 [13a 7 6 800] ------- [0:0 7:0 30 7] [2 0] 3 0
r 10.205978008 _7_ AGT  --- 7 tcp 1040 [13a 7 6 800] ------- [0:0 7:0 30 7] [2 0] 3 0
s 10.205978008 _7_ AGT  --- 10 ack 40 [0 0 0 0] ------- [7:0 0:0 32 0] [2 0] 0 0
r 10.205978008 _7_ RTR  --- 10 ack 40 [0 0 0 0] ------- [7:0 0:0 32 0] [2 0] 0 0
SFESTs 10.205978008 _7_ 10 [7 -> 0] 1(1) to 6 [7 |6 5 0 ]
s 10.205978008 _7_ RTR  --- 10 ack 84 [0 0 0 0] ------- [7:0 0:0 32 6] [2 0] 0 0
r 10.208396420 _6_ RTR  --- 10 ack 84 [13a 6 7 800] ------- [7:0 0:0 32 6] [2 0] 1 0
f 10.208396420 _6_ RTR  --- 10 ack 84 [13a 6 7 800] ------- [7:0 0:0 31 5] [2 0] 1 0
r 10.210614580 _5_ RTR  --- 8 ack 84 [13a 5 6 800] ------- [7:0 0:0 31 5] [1 0] 2 0
f 10.210614580 _5_ RTR  --- 8 ack 84 [13a 5 6 800] ------- [7:0 0:0 30 0] [1 0] 2 0
r 10.213252810 _0_ RTR  --- 8 ack 84 [13a 0 5 800] ------- [7:0 0:0 30 0] [1 0] 3 0
r 10.213252810 _0_ AGT  --- 8 ack 40 [13a 0 5 800] ------- [7:0 0:0 30 0] [1 0] 3 0
s 10.213252810 _0_ AGT  --- 11 tcp 1040 [0 0 0 0] ------- [0:0 7:0 32 0] [3 0] 0 0
r 10.213252810 _0_ RTR  --- 11 tcp 1040 [0 0 0 0] ------- [0:0 7:0 32 0] [3 0] 0 0
SFs 10.213252810 _0_ 11 [0 -> 7] 1(0) to 5 
s 10.213252810 _0_ AGT  --- 12 tcp 1040 [0 0 0 0] ------- [0:0 7:0 32 0] [4 0] 0 0
r 10.213252810 _0_ RTR  --- 12 tcp 1040 [0 0 0 0] ------- [0:0 7:0 32 0] [4 0] 0 0
SFs 10.213252810 _0_ 12 [0 -> 7] 1(0) to 5 
s 10.213252810 _0_ RTR  --- 11 tcp 1060 [0 0 0 0] ------- [0:0 7:0 32 5] [3 0] 0 0
s 10.213252810 _0_ RTR  --- 12 tcp 1060 [0 0 0 0] ------- [0:0 7:0 32 5] [4 0] 0 0
r 10.223599040 _5_ RTR  --- 11 tcp 1060 [13a 5 0 800] ------- [0:0 7:0 32 5] [3 0] 1 0
SFf 10.223599040 _5_ 11 [0 -> 7] 1 to 6
f 10.223599040 _5_ RTR  --- 11 tcp 1060 [13a 5 0 800] ------- [0:0 7:0 31 6] [3 0] 1 0
r 10.225867798 _5_ RTR  --- 10 ack 84 [13a 5 6 800] ------- [7:0 0:0 31 5] [2 0] 2 0
f 10.225867798 _5_ RTR  --- 10 ack 84 [13a 5 6 800] ------- [7:0 0:0 30 0] [2 0] 2 0
r 10.236104649 _5_ RTR  --- 12 tcp 1060 [13a 5 0 800] ------- [0:0 7:0 32 5] [4 0] 1 0
SFf 10.236104649 _5_ 12 [0 -> 7] 1 to 6
f 10.236104649 _5_ RTR  --- 12 tcp 1060 [13a 5 0 800] ------- [0:0 7:0 31 6] [4 0] 1 0
r 10.246230809 _6_ RTR  --- 11 tcp 1060 [13a 6 5 800] ------- [0:0 7:0 31 6] [3 0] 2 0
SFf 10.246230809 _6_ 11 [0 -> 7] 1 to 7
f 10.246230809 _6_ RTR  --- 11 tcp 1060 [13a 6 5 800] ------- [0:0 7:0 30 7] [3 0] 2 0
r 10.248529759 _0_ RTR  --- 10 ack 84 [13a 0 5 800] ------- [7:0 0:0 30 0] [2 0] 3 0
r 10.248529759 _0_ AGT  --- 10 ack 40 [13a 0 5 800] ------- [7:0 0:0 30 0] [2 0] 3 0
s 10.248529759 _0_ AGT  --- 13 tcp 1040 [0 0 0 0] ------- [0:0 7:0 32 0] [5 0] 0 0
r 10.248529759 _0_ RTR  --- 13 tcp 1040 [0 0 0 0] ------- [0:0 7:0 32 0] [5 0] 0 0
SFs 10.248529759 _0_ 13 [0 -> 7] 1(0) to 5 
s 10.248529759 _0_ AGT  --- 14 tcp 1040 [0 0 0 0] ------- [0:0 7:0 32 0] [6 0] 0 0
r 10.248529759 _0_ RTR  --- 14 tcp 1040 [0 0 0 0] ------- [0:0 7:0 32 0] [6 0] 0 0
SFs 10.248529759 _0_ 14 [0 -> 7] 1(0) to 5 
s 10.248529759 _0_ RTR  --- 13 tcp 1060 [0 0 0 0] ------- [0:0 7:0 32 5] [5 0] 0 0
s 10.248529759 _0_ RTR  --- 14 tcp 1060 [0 0 0 0] ------- [0:0 7:0 32 5] [6 0] 0 0
r 10.258516662 _6_ RTR  --- 12 tcp 1060 [13a 6 5 800] ------- [0:0 7:0 31 6] [4 0] 2 0
SFf 10.258516662 _6_ 12 [0 -> 7] 1 to 7
f 10.258516662 _6_ RTR  --- 12 tcp 1060 [13a 6 5 800] ------- [0:0 7:0 30 7] [4 0] 2 0
r 10.268963074 _7_ RTR  --- 11 tcp 1060 [13a 7 6 800] ------- [0:0 7:0 30 7] [3 0] 3 0
r 10.268963074 _7_ AGT  --- 11 tcp 1040 [13a 7 6 800] ------- [0:0 7:0 30 7] [3 0] 3 0
s 10.268963074 _7_ AGT  --- 15 ack 40 [0 0 0 0] ------- [7:0 0:0 32 0] [3 0] 0 0
r 10.268963074 _7_ RTR  --- 15 ack 40 [0 0 0 0] ------- [7:0 0:0 32 0] [3 0] 0 0
SFs 10.268963074 _7_ 15 [7 -> 0] 1(0) to 6 
s 10.268963074 _7_ RTR  --- 15 ack 60 [0 0 0 0] ------- [7:0 0:0 32 6] [3 0] 0 0
r 10.279110289 _7_ RTR  --- 12 tcp 1060 [13a 7 6 800] ------- [0:0 7:0 30 7] [4 0] 3 0
r 10.279110289 _7_ AGT  --- 12 tcp 1040 [13a 7 6 800] ------- [0:0 7:0 30 7] [4 0] 3 0
s 10.279110289 _7_ AGT  --- 16 ack 40 [0 0 0 0] ------- [7:0 0:0 32 0] [4 0] 0 0
r 10.279110289 _7_ RTR  --- 16 ack 40 [0 0 0 0] ------- [7:0 0:0 32 0] [4 0] 0 0
SFs 10.279110289 _7_ 16 [7 -> 0] 1(0) to 6 
s 10.279110289 _7_ RTR  --- 16 ack 60 [0 0 0 0] ------- [7:0 0:0 32 6] [4 0] 0 0
r 10.287946309 _6_ RTR  --- 15 ack 60 [13a 6 7 800] ------- [7:0 0:0 32 6] [3 0] 1 0
SFf 10.287946309 _6_ 15 [7 -> 0] 1 to 5
f 10.287946309 _6_ RTR  --- 15 ack 60 [13a 6 7 800] ------- [7:0 0:0 31 5] [3 0] 1 0
r 10.290112469 _5_ RTR  --- 15 ack 60 [13a 5 6 800] ------- [7:0 0:0 31 5] [3 0] 2 0
SFf 10.290112469 _5_ 15 [7 -> 0] 1 to 0
f 10.290112469 _5_ RTR  --- 15 ack 60 [13a 5 6 800] ------- [7:0 0:0 30 0] [3 0] 2 0
r 10.292098699 _0_ RTR  --- 15 ack 60 [13a 0 5 800] ------- [7:0 0:0 30 0] [3 0] 3 0
r 10.292098699 _0_ AGT  --- 15 ack 40 [13a 0 5 800] ------- [7:0 0:0 30 0] [3 0] 3 0
s 10.292098699 _0_ AGT  --- 17 tcp 1040 [0 0 0 0] ------- [0:0 7:0 32 0] [7 0] 0 0
r 10.292098699 _0_ RTR  --- 17 tcp 1040 [0 0 0 0] ------- [0:0 7:0 32 0] [7 0] 0 0
SFs 10.292098699 _0_ 17 [0 -> 7] 1(0) to 5 
s 10.292098699 _0_ AGT  --- 18 tcp 1040 [0 0 0 0] ------- [0:0 7:0 32 0] [8 0] 0 0
r 10.292098699 _0_ RTR  --- 18 tcp 1040 [0 0 0 0] ------- [0:0 7:0 32 0] [8 0] 0 0
SFs 10.292098699 _0_ 18 [0 -> 7] 1(0) to 5 
s 10.292098699 _0_ RTR  --- 17 tcp 1060 [0 0 0 0] ------- [0:0 7:0 32 5] [7 0] 0 0
s 10.292098699 _0_ RTR  --- 18 tcp 1060 [0 0 0 0] ------- [0:0 7:0 32 5] [8 0] 0 0
r 10.294395891 _6_ RTR  --- 16 ack 60 [13a 6 7 800] ------- [7:0 0:0 32 6] [4 0] 1 0
SFf 10.294395891 _6_ 16 [7 -> 0] 1 to 5
f 10.294395891 _6_ RTR  --- 16 ack 60 [13a 6 7 800] ------- [7:0 0:0 31 5] [4 0] 1 0
r 10.296822051 _5_ RTR  --- 16 ack 60 [13a 5 6 800] ------- [7:0 0:0 31 5] [4 0] 2 0
SFf 10.296822051 _5_ 16 [7 -> 0] 1 to 0
f 10.296822051 _5_ RTR  --- 16 ack 60 [13a 5 6 800] ------- [7:0 0:0 30 0] [4 0] 2 0
r 10.299108281 _0_ RTR  --- 16 ack 60 [13a 0 5 800] ------- [7:0 0:0 30 0] [4 0] 3 0
r 10.299108281 _0_ AGT  --- 16 ack 40 [13a 0 5 800] ------- [7:0 0:0 30 0] [4 0] 3 0
s 10.299108281 _0_ AGT  --- 19 tcp 1040 [0 0 0 0] ------- [0:0 7:0 32 0] [9 0] 0 0
r 10.299108281 _0_ RTR  --- 19 tcp 1040 [0 0 0 0] ------- [0:0 7:0 32 0] [9 0] 0 0
SFs 10.299108281 _0_ 19 [0 -> 7] 1(0) to 5 
s 10.299108281 _0_ AGT  --- 20 tcp 1040 [0 0 0 0] ------- [0:0 7:0 32 0] [10 0] 0 0
r 10.299108281 _0_ RTR  --- 20 tcp 1040 [0 0 0 0] ------- [0:0 7:0 32 0] [10 0] 0 0
SFs 10.299108281 _0_ 20 [0 -> 7] 1(0) to 5 
s 10.299108281 _0_ RTR  --- 19 tcp 1060 [0 0 0 0] ------- [0:0 7:0 32 5] [9 0] 0 0
s 10.299108281 _0_ RTR  --- 20 tcp 1060 [0 0 0 0] ------- [0:0 7:0 32 5] [10 0] 0 0
r 10.310354511 _5_ RTR  --- 13 tcp 1060 [13a 5 0 800] ------- [0:0 7:0 32 5] [5 0] 1 0
SFf 10.310354511 _5_ 13 [0 -> 7] 1 to 6
f 10.310354511 _5_ RTR  --- 13 tcp 1060 [13a 5 0 800] ------- [0:0 7:0 31 6] [5 0] 1 0
r 10.320701484 _5_ RTR  --- 14 tcp 1060 [13a 5 0 800] ------- [0:0 7:0 32 5] [6 0] 1 0
SFf 10.320701484 _5_ 14 [0 -> 7] 1 to 6
f 10.320701484 _5_ RTR  --- 14 tcp 1060 [13a 5 0 800] ------- [0:0 7:0 31 6] [6 0] 1 0
r 10.330707644 _6_ RTR  --- 13 tcp 1060 [13a 6 5 800] ------- [0:0 7:0 31 6] [5 0] 2 0
SFf 10.330707644 _6_ 13 [0 -> 7] 1 to 7
f 10.330707644 _6_ RTR  --- 13 tcp 1060 [13a 6 5 800] ------- [0:0 7:0 30 7] [5 0] 2 0
r 10.340994524 _6_ RTR  --- 14 tcp 1060 [13a 6 5 800] ------- [0:0 7:0 31 6] [6 0] 2 0
SFf 10.340994524 _6_ 14 [0 -> 7] 1 to 7
f 10.340994524 _6_ RTR  --- 14 tcp 1060 [13a 6 5 800] ------- [0:0 7:0 30 7] [6 0] 2 0
r 10.351200936 _7_ RTR  --- 13 tcp 1060 [13a 7 6 800] ------- [0:0 7:0 30 7] [5 0] 3 0
r 10.351200936 _7_ AGT  --- 13 tcp 1040 [13a 7 6 800] ------- [0:0 7:0 30 7] [5 0] 3 0
s 10.351200936 _7_ AGT  --- 21 ack 40 [0 0 0 0] ------- [7:0 0:0 32 0] [5 0] 0 0
r 10.351200936 _7_ RTR  --- 21 ack 40 [0 0 0 0] ------- [7:0 0:0 32 0] [5 0] 0 0
SFs 10.351200936 _7_ 21 [7 -> 0] 1(0) to 6 
s 10.351200936 _7_ RTR  --- 21 ack 60 [0 0 0 0] ------- [7:0 0:0 32 6] [5 0] 0 0
r 10.362374152 _7_ RTR  --- 14 tcp 1060 [13a 7 6 800] ------- [0:0 7:0 30 7] [6 0] 3 0
r 10.362374152 _7_ AGT  --- 14 tcp 1040 [13a 7 6 800] ------- [0:0 7:0 30 7] [6 0] 3 0
s 10.362374152 _7_ AGT  --- 22 ack 40 [0 0 0 0] ------- [7:0 0:0 32 0] [6 0] 0 0
r 10.362374152 _7_ RTR  --- 22 ack 40 [0 0 0 0] ------- [7:0 0:0 32 0] [6 0] 0 0
SFs 10.362374152 _7_ 22 [7 -> 0] 1(0) to 6 
s 10.362374152 _7_ RTR  --- 22 ack 60 [0 0 0 0] ------- [7:0 0:0 32 6] [6 0] 0 0
r 10.379232134 _5_ RTR  --- 17 tcp 1060 [13a 5 0 800] ------- [0:0 7:0 32 5] [7 0] 1 0
SFf 10.379232134 _5_ 17 [0 -> 7] 1 to 6
f 10.379232134 _5_ RTR  --- 17 tcp 1060 [13a 5 0 800] ------- [0:0 7:0 31 6] [7 0] 1 0
r 10.389378294 _6_ RTR  --- 17 tcp 1060 [13a 6 5 800] ------- [0:0 7:0 31 6] [7 0] 2 0
SFf 10.389378294 _6_ 17 [0 -> 7] 1 to 7
f 10.389378294 _6_ RTR  --- 17 tcp 1060 [13a 6 5 800] ------- [0:0 7:0 30 7] [7 0] 2 0
r 10.399504706 _7_ RTR  --- 17 tcp 1060 [13a 7 6 800] ------- [0:0 7:0 30 7] [7 0] 3 0
r 10.399504706 _7_ AGT  --- 17 tcp 1040 [13a 7 6 800] ------- [0:0 7:0 30 7] [7 0] 3 0
s 10.399504706 _7_ AGT  --- 23 ack 40 [0 0 0 0] ------- [7:0 0:0 32 0] [7 0] 0 0
r 10.399504706 _7_ RTR  --- 23 ack 40 [0 0 0 0] ------- [7:0 0:0 32 0] [7 0] 0 0
SFs 10.399504706 _7_ 23 [7 -> 0] 1(0) to 6 
s 10.399504706 _7_ RTR  --- 23 ack 60 [0 0 0 0] ------- [7:0 0:0 32 6] [7 0] 0 0
r 10.411361473 _5_ RTR  --- 18 tcp 1060 [13a 5 0 800] ------- [0:0 7:0 32 5] [8 0] 1 0
SFf 10.411361473 _5_ 18 [0 -> 7] 1 to 6
f 10.411361473 _5_ RTR  --- 18 tcp 1060 [13a 5 0 800] ------- [0:0 7:0 31 6] [8 0] 1 0
r 10.421568446 _5_ RTR  --- 19 tcp 1060 [13a 5 0 800] ------- [0:0 7:0 32 5] [9 0] 1 0
SFf 10.421568446 _5_ 19 [0 -> 7] 1 to 6
f 10.421568446 _5_ RTR  --- 19 tcp 1060 [13a 5 0 800] ------- [0:0 7:0 31 6] [9 0] 1 0
r 10.431775419 _5_ RTR  --- 20 tcp 1060 [13a 5 0 800] ------- [0:0 7:0 32 5] [10 0] 1 0
SFf 10.431775419 _5_ 20 [0 -> 7] 1 to 6
f 10.431775419 _5_ RTR  --- 20 tcp 1060 [13a 5 0 800] ------- [0:0 7:0 31 6] [10 0] 1 0
r 10.441901579 _6_ RTR  --- 18 tcp 1060 [13a 6 5 800] ------- [0:0 7:0 31 6] [8 0] 2 0
SFf 10.441901579 _6_ 18 [0 -> 7] 1 to 7
f 10.441901579 _6_ RTR  --- 18 tcp 1060 [13a 6 5 800] ------- [0:0 7:0 30 7] [8 0] 2 0
r 10.451988460 _6_ RTR  --- 19 tcp 1060 [13a 6 5 800] ------- [0:0 7:0 31 6] [9 0] 2 0
SFf 10.451988460 _6_ 19 [0 -> 7] 1 to 7
f 10.451988460 _6_ RTR  --- 19 tcp 1060 [13a 6 5 800] ------- [0:0 7:0 30 7] [9 0] 2 0
r 10.462114871 _7_ RTR  --- 18 tcp 1060 [13a 7 6 800] ------- [0:0 7:0 30 7] [8 0] 3 0
r 10.462114871 _7_ AGT  --- 18 tcp 1040 [13a 7 6 800] ------- [0:0 7:0 30 7] [8 0] 3 0
s 10.462114871 _7_ AGT  --- 24 ack 40 [0 0 0 0] ------- [7:0 0:0 32 0] [8 0] 0 0
r 10.462114871 _7_ RTR  --- 24 ack 40 [0 0 0 0] ------- [7:0 0:0 32 0] [8 0] 0 0
SFs 10.462114871 _7_ 24 [7 -> 0] 1(0) to 6 
s 10.462114871 _7_ RTR  --- 24 ack 60 [0 0 0 0] ------- [7:0 0:0 32 6] [8 0] 0 0
r 10.472486555 _6_ RTR  --- 20 tcp 1060 [13a 6 5 800] ------- [0:0 7:0 31 6] [10 0] 2 0
SFf 10.472486555 _6_ 20 [0 -> 7] 1 to 7
f 10.472486555 _6_ RTR  --- 20 tcp 1060 [13a 6 5 800] ------- [0:0 7:0 30 7] [10 0] 2 0
r 10.482652967 _7_ RTR  --- 19 tcp 1060 [13a 7 6 800] ------- [0:0 7:0 30 7] [9 0] 3 0
r 10.482652967 _7_ AGT  --- 19 tcp 1040 [13a 7 6 800] ------- [0:0 7:0 30 7] [9 0] 3 0
s 10.482652967 _7_ AGT  --- 25 ack 40 [0 0 0 0] ------- [7:0 0:0 32 0] [9 0] 0 0
r 10.482652967 _7_ RTR  --- 25 ack 40 [0 0 0 0] ------- [7:0 0:0 32 0] [9 0] 0 0
SFs 10.482652967 _7_ 25 [7 -> 0] 1(0) to 6 
s 10.482652967 _7_ RTR  --- 25 ack 60 [0 0 0 0] ------- [7:0 0:0 32 6] [9 0] 0 0
r 10.493040182 _7_ RTR  --- 20 tcp 1060 [13a 7 6 800] ------- [0:0 7:0 30 7] [10 0] 3 0
r 10.493040182 _7_ AGT  --- 20 tcp 1040 [13a 7 6 800] ------- [0:0 7:0 30 7] [10 0] 3 0
s 10.493040182 _7_ AGT  --- 26 ack 40 [0 0 0 0] ------- [7:0 0:0 32 0] [10 0] 0 0
r 10.493040182 _7_ RTR  --- 26 ack 40 [0 0 0 0] ------- [7:0 0:0 32 0] [10 0] 0 0
SFs 10.493040182 _7_ 26 [7 -> 0] 1(0) to 6 
s 10.493040182 _7_ RTR  --- 26 ack 60 [0 0 0 0] ------- [7:0 0:0 32 6] [10 0] 0 0
r 10.500126594 _6_ RTR  --- 21 ack 60 [13a 6 7 800] ------- [7:0 0:0 32 6] [5 0] 1 0
SFf 10.500126594 _6_ 21 [7 -> 0] 1 to 5
f 10.500126594 _6_ RTR  --- 21 ack 60 [13a 6 7 800] ------- [7:0 0:0 31 5] [5 0] 1 0
r 10.503540362 _5_ RTR  --- 21 ack 60 [13a 5 6 800] ------- [7:0 0:0 31 5] [5 0] 2 0
SFf 10.503540362 _5_ 21 [7 -> 0] 1 to 0
f 10.503540362 _5_ RTR  --- 21 ack 60 [13a 5 6 800] ------- [7:0 0:0 30 0] [5 0] 2 0
r 10.505526592 _0_ RTR  --- 21 ack 60 [13a 0 5 800] ------- [7:0 0:0 30 0] [5 0] 3 0
r 10.505526592 _0_ AGT  --- 21 ack 40 [13a 0 5 800] ------- [7:0 0:0 30 0] [5 0] 3 0
s 10.505526592 _0_ AGT  --- 27 tcp 1040 [0 0 0 0] ------- [0:0 7:0 32 0] [11 0] 0 0
r 10.505526592 _0_ RTR  --- 27 tcp 1040 [0 0 0 0] ------- [0:0 7:0 32 0] [11 0] 0 0
SFs 10.505526592 _0_ 27 [0 -> 7] 1(0) to 5 
s 10.505526592 _0_ AGT  --- 28 tcp 1040 [0 0 0 0] ------- [0:0 7:0 32 0] [12 0] 0 0
r 10.505526592 _0_ RTR  --- 28 tcp 1040 [0 0 0 0] ------- [0:0 7:0 32 0] [12 0] 0 0
SFs 10.505526592 _0_ 28 [0 -> 7] 1(0) to 5 
s 10.505526592 _0_ RTR  --- 27 tcp 1060 [0 0 0 0] ------- [0:0 7:0 32 5] [11 0] 0 0
s 10.505526592 _0_ RTR  --- 28 tcp 1060 [0 0 0 0] ------- [0:0 7:0 32 5] [12 0] 0 0
r 10.515532822 _5_ RTR  --- 27 tcp 1060 [13a 5 0 800] ------- [0:0 7:0 32 5] [11 0] 1 0
SFf 10.515532822 _5_ 27 [0 -> 7] 1 to 6
f 10.515532822 _5_ RTR  --- 27 tcp 1060 [13a 5 0 800] ------- [0:0 7:0 31 6] [11 0] 1 0
r 10.525779795 _5_ RTR  --- 28 tcp 1060 [13a 5 0 800] ------- [0:0 7:0 32 5] [12 0] 1 0
SFf 10.525779795 _5_ 28 [0 -> 7] 1 to 6
f 10.525779795 _5_ RTR  --- 28 tcp 1060 [13a 5 0 800] ------- [0:0 7:0 31 6] [12 0] 1 0
r 10.535925955 _6_ RTR  --- 27 tcp 1060 [13a 6 5 800] ------- [0:0 7:0 31 6] [11 0] 2 0
SFf 10.535925955 _6_ 27 [0 -> 7] 1 to 7
f 10.535925955 _6_ RTR  --- 27 tcp 1060 [13a 6 5 800] ------- [0:0 7:0 30 7] [11 0] 2 0
r 10.545932367 _7_ RTR  --- 27 tcp 1060 [13a 7 6 800] ------- [0:0 7:0 30 7] [11 0] 3 0
r 10.545932367 _7_ AGT  --- 27 tcp 1040 [13a 7 6 800] ------- [0:0 7:0 30 7] [11 0] 3 0
s 10.545932367 _7_ AGT  --- 29 ack 40 [0 0 0 0] ------- [7:0 0:0 32 0] [11 0] 0 0
r 10.545932367 _7_ RTR  --- 29 ack 40 [0 0 0 0] ------- [7:0 0:0 32 0] [11 0] 0 0
SFs 10.545932367 _7_ 29 [7 -> 0] 1(0) to 6 
s 10.545932367 _7_ RTR  --- 29 ack 60 [0 0 0 0] ------- [7:0 0:0 32 6] [11 0] 0 0
r 10.548198778 _6_ RTR  --- 22 ack 60 [13a 6 7 800] ------- [7:0 0:0 32 6] [6 0] 1 0
SFf 10.548198778 _6_ 22 [7 -> 0] 1 to 5
f 10.548198778 _6_ RTR  --- 22 ack 60 [13a 6 7 800] ------- [7:0 0:0 31 5] [6 0] 1 0
r 10.550384939 _5_ RTR  --- 22 ack 60 [13a 5 6 800] ------- [7:0 0:0 31 5] [6 0] 2 0
SFf 10.550384939 _5_ 22 [7 -> 0] 1 to 0
f 10.550384939 _5_ RTR  --- 22 ack 60 [13a 5 6 800] ------- [7:0 0:0 30 0] [6 0] 2 0
r 10.560731099 _6_ RTR  --- 28 tcp 1060 [13a 6 5 800] ------- [0:0 7:0 31 6] [12 0] 2 0
SFf 10.560731099 _6_ 28 [0 -> 7] 1 to 7
f 10.560731099 _6_ RTR  --- 28 tcp 1060 [13a 6 5 800] ------- [0:0 7:0 30 7] [12 0] 2 0
r 10.562808314 _6_ RTR  --- 23 ack 60 [13a 6 7 800] ------- [7:0 0:0 32 6] [7 0] 1 0
SFf 10.562808314 _6_ 23 [7 -> 0] 1 to 5
f 10.562808314 _6_ RTR  --- 23 ack 60 [13a 6 7 800] ------- [7:0 0:0 31 5] [7 0] 1 0
r 10.572834726 _7_ RTR  --- 28 tcp 1060 [13a 7 6 800] ------- [0:0 7:0 30 7] [12 0] 3 0
r 10.572834726 _7_ AGT  --- 28 tcp 1040 [13a 7 6 800] ------- [0:0 7:0 30 7] [12 0] 3 0
s 10.572834726 _7_ AGT  --- 30 ack 40 [0 0 0 0] ------- [7:0 0:0 32 0] [12 0] 0 0
r 10.572834726 _7_ RTR  --- 30 ack 40 [0 0 0 0] ------- [7:0 0:0 32 0] [12 0] 0 0
SFs 10.572834726 _7_ 30 [7 -> 0] 1(0) to 6 
s 10.572834726 _7_ RTR  --- 30 ack 60 [0 0 0 0] ------- [7:0 0:0 32 6] [12 0] 0 0
r 10.574841137 _6_ RTR  --- 24 ack 60 [13a 6 7 800] ------- [7:0 0:0 32 6] [8 0] 1 0
SFf 10.574841137 _6_ 24 [7 -> 0] 1 to 5
f 10.574841137 _6_ RTR  --- 24 ack 60 [13a 6 7 800] ------- [7:0 0:0 31 5] [8 0] 1 0
r 10.576867297 _5_ RTR  --- 23 ack 60 [13a 5 6 800] ------- [7:0 0:0 31 5] [7 0] 2 0
SFf 10.576867297 _5_ 23 [7 -> 0] 1 to 0
f 10.576867297 _5_ RTR  --- 23 ack 60 [13a 5 6 800] ------- [7:0 0:0 30 0] [7 0] 2 0
r 10.579054178 _5_ RTR  --- 24 ack 60 [13a 5 6 800] ------- [7:0 0:0 31 5] [8 0] 2 0
SFf 10.579054178 _5_ 24 [7 -> 0] 1 to 0
f 10.579054178 _5_ RTR  --- 24 ack 60 [13a 5 6 800] ------- [7:0 0:0 30 0] [8 0] 2 0
r 10.581180408 _0_ RTR  --- 22 ack 60 [13a 0 5 800] ------- [7:0 0:0 30 0] [6 0] 3 0
r 10.581180408 _0_ AGT  --- 22 ack 40 [13a 0 5 800] ------- [7:0 0:0 30 0] [6 0] 3 0
s 10.581180408 _0_ AGT  --- 31 tcp 1040 [0 0 0 0] ------- [0:0 7:0 32 0] [13 0] 0 0
r 10.581180408 _0_ RTR  --- 31 tcp 1040 [0 0 0 0] ------- [0:0 7:0 32 0] [13 0] 0 0
SFs 10.581180408 _0_ 31 [0 -> 7] 1(0) to 5 
s 10.581180408 _0_ AGT  --- 32 tcp 1040 [0 0 0 0] ------- [0:0 7:0 32 0] [14 0] 0 0
r 10.581180408 _0_ RTR  --- 32 tcp 1040 [0 0 0 0] ------- [0:0 7:0 32 0] [14 0] 0 0
SFs 10.581180408 _0_ 32 [0 -> 7] 1(0) to 5 
s 10.581180408 _0_ RTR  --- 31 tcp 1060 [0 0 0 0] ------- [0:0 7:0 32 5] [13 0] 0 0
s 10.581180408 _0_ RTR  --- 32 tcp 1060 [0 0 0 0] ------- [0:0 7:0 32 5] [14 0] 0 0
r 10.592486637 _5_ RTR  --- 31 tcp 1060 [13a 5 0 800] ------- [0:0 7:0 32 5] [13 0] 1 0
SFf 10.592486637 _5_ 31 [0 -> 7] 1 to 6
f 10.592486637 _5_ RTR  --- 31 tcp 1060 [13a 5 0 800] ------- [0:0 7:0 31 6] [13 0] 1 0
r 10.602473611 _5_ RTR  --- 32 tcp 1060 [13a 5 0 800] ------- [0:0 7:0 32 5] [14 0] 1 0
SFf 10.602473611 _5_ 32 [0 -> 7] 1 to 6
f 10.602473611 _5_ RTR  --- 32 tcp 1060 [13a 5 0 800] ------- [0:0 7:0 31 6] [14 0] 1 0
r 10.604579841 _0_ RTR  --- 23 ack 60 [13a 0 5 800] ------- [7:0 0:0 30 0] [7 0] 3 0
r 10.604579841 _0_ AGT  --- 23 ack 40 [13a 0 5 800] ------- [7:0 0:0 30 0] [7 0] 3 0
s 10.604579841 _0_ AGT  --- 33 tcp 1040 [0 0 0 0] ------- [0:0 7:0 32 0] [15 0] 0 0
r 10.604579841 _0_ RTR  --- 33 tcp 1040 [0 0 0 0] ------- [0:0 7:0 32 0] [15 0] 0 0
SFs 10.604579841 _0_ 33 [0 -> 7] 1(0) to 5 
s 10.604579841 _0_ AGT  --- 34 tcp 1040 [0 0 0 0] ------- [0:0 7:0 32 0] [16 0] 0 0
r 10.604579841 _0_ RTR  --- 34 tcp 1040 [0 0 0 0] ------- [0:0 7:0 32 0] [16 0] 0 0
SFs 10.604579841 _0_ 34 [0 -> 7] 1(0) to 5 
s 10.604579841 _0_ RTR  --- 33 tcp 1060 [0 0 0 0] ------- [0:0 7:0 32 5] [15 0] 0 0
s 10.604579841 _0_ RTR  --- 34 tcp 1060 [0 0 0 0] ------- [0:0 7:0 32 5] [16 0] 0 0
r 10.614686070 _5_ RTR  --- 33 tcp 1060 [13a 5 0 800] ------- [0:0 7:0 32 5] [15 0] 1 0
SFf 10.614686070 _5_ 33 [0 -> 7] 1 to 6
f 10.614686070 _5_ RTR  --- 33 tcp 1060 [13a 5 0 800] ------- [0:0 7:0 31 6] [15 0] 1 0
r 10.616852300 _0_ RTR  --- 24 ack 60 [13a 0 5 800] ------- [7:0 0:0 30 0] [8 0] 3 0
r 10.616852300 _0_ AGT  --- 24 ack 40 [13a 0 5 800] ------- [7:0 0:0 30 0] [8 0] 3 0
s 10.616852300 _0_ AGT  --- 35 tcp 1040 [0 0 0 0] ------- [0:0 7:0 32 0] [17 0] 0 0
r 10.616852300 _0_ RTR  --- 35 tcp 1040 [0 0 0 0] ------- [0:0 7:0 32 0] [17 0] 0 0
SFs 10.616852300 _0_ 35 [0 -> 7] 1(0) to 5 
s 10.616852300 _0_ AGT  --- 36 tcp 1040 [0 0 0 0] ------- [0:0 7:0 32 0] [18 0] 0 0
r 10.616852300 _0_ RTR  --- 36 tcp 1040 [0 0 0 0] ------- [0:0 7:0 32 0] [18 0] 0 0
SFs 10.616852300 _0_ 36 [0 -> 7] 1(0) to 5 
s 10.616852300 _0_ RTR  --- 35 tcp 1060 [0 0 0 0] ------- [0:0 7:0 32 5] [17 0] 0 0
s 10.616852300 _0_ RTR  --- 36 tcp 1060 [0 0 0 0] ------- [0:0 7:0 32 5] [18 0] 0 0
r 10.626899204 _6_ RTR  --- 31 tcp 1060 [13a 6 5 800] ------- [0:0 7:0 31 6] [13 0] 2 0
SFf 10.626899204 _6_ 31 [0 -> 7] 1 to 7
f 10.626899204 _6_ RTR  --- 31 tcp 1060 [13a 6 5 800] ------- [0:0 7:0 30 7] [13 0] 2 0
r 10.637065615 _7_ RTR  --- 31 tcp 1060 [13a 7 6 800] ------- [0:0 7:0 30 7] [13 0] 3 0
r 10.637065615 _7_ AGT  --- 31 tcp 1040 [13a 7 6 800] ------- [0:0 7:0 30 7] [13 0] 3 0
s 10.637065615 _7_ AGT  --- 37 ack 40 [0 0 0 0] ------- [7:0 0:0 32 0] [13 0] 0 0
r 10.637065615 _7_ RTR  --- 37 ack 40 [0 0 0 0] ------- [7:0 0:0 32 0] [13 0] 0 0
SFs 10.637065615 _7_ 37 [7 -> 0] 1(0) to 6 
s 10.637065615 _7_ RTR  --- 37 ack 60 [0 0 0 0] ------- [7:0 0:0 32 6] [13 0] 0 0
r 10.647402382 _5_ RTR  --- 34 tcp 1060 [13a 5 0 800] ------- [0:0 7:0 32 5] [16 0] 1 0
SFf 10.647402382 _5_ 34 [0 -> 7] 1 to 6
f 10.647402382 _5_ RTR  --- 34 tcp 1060 [13a 5 0 800] ------- [0:0 7:0 31 6] [16 0] 1 0
SSendFailure 10.653714393 _7_ 25 5 7:0 0:0 7->6 0 0 0 4 [|7 6 5 0 ]
SFESTs 10.653714393 _7_ 25 [7 -> 0] 3(1) to 4 [7 |4 3 2 1 0 ]
SFESTs 10.653714393 _7_ 26 [7 -> 0] 3(1) to 4 [7 |4 3 2 1 0 ]
SFESTs 10.653714393 _7_ 29 [7 -> 0] 3(1) to 4 [7 |4 3 2 1 0 ]
SFs 10.653714393 _7_ 30 [7 -> 0] 3(0) to 4 
SFs 10.653714393 _7_ 37 [7 -> 0] 3(0) to 4 
s 10.653714393 _7_ RTR  --- 25 ack 92 [13a 6 7 800] ------- [7:0 0:0 32 4] [9 0] 0 0
s 10.653714393 _7_ RTR  --- 26 ack 92 [0 6 7 800] ------- [7:0 0:0 32 4] [10 0] 0 0
s 10.653714393 _7_ RTR  --- 29 ack 92 [0 6 7 800] ------- [7:0 0:0 32 4] [11 0] 0 0
s 10.653714393 _7_ RTR  --- 30 ack 60 [0 6 7 800] ------- [7:0 0:0 32 4] [12 0] 0 0
s 10.653714393 _7_ RTR  --- 37 ack 60 [0 6 7 800] ------- [7:0 0:0 32 4] [13 0] 0 0
r 10.656772632 _4_ RTR  --- 25 ack 92 [13a 4 7 800] ------- [7:0 0:0 32 4] [9 0] 1 0
f 10.656772632 _4_ RTR  --- 25 ack 92 [13a 4 7 800] ------- [7:0 0:0 31 3] [9 0] 1 0
r 10.657609356 _5_ RTR  --- 35 tcp 1060 [13a 5 0 800] ------- [0:0 7:0 32 5] [17 0] 1 0
SFf 10.657609356 _5_ 35 [0 -> 7] 1 to 6
f 10.657609356 _5_ RTR  --- 35 tcp 1060 [13a 5 0 800] ------- [0:0 7:0 31 6] [17 0] 1 0
r 10.664835617 _4_ RTR  --- 26 ack 92 [13a 4 7 800] ------- [7:0 0:0 32 4] [10 0] 1 0
f 10.664835617 _4_ RTR  --- 26 ack 92 [13a 4 7 800] ------- [7:0 0:0 31 3] [10 0] 1 0
r 10.667678603 _4_ RTR  --- 29 ack 92 [13a 4 7 800] ------- [7:0 0:0 32 4] [11 0] 1 0
f 10.667678603 _4_ RTR  --- 29 ack 92 [13a 4 7 800] ------- [7:0 0:0 31 3] [11 0] 1 0
r 10.668782329 _5_ RTR  --- 36 tcp 1060 [13a 5 0 800] ------- [0:0 7:0 32 5] [18 0] 1 0
SFf 10.668782329 _5_ 36 [0 -> 7] 1 to 6
f 10.668782329 _5_ RTR  --- 36 tcp 1060 [13a 5 0 800] ------- [0:0 7:0 31 6] [18 0] 1 0
r 10.689317929 _6_ RTR  --- 32 tcp 1060 [13a 6 5 800] ------- [0:0 7:0 31 6] [14 0] 2 0
SFf 10.689317929 _6_ 32 [0 -> 7] 1 to 7
f 10.689317929 _6_ RTR  --- 32 tcp 1060 [13a 6 5 800] ------- [0:0 7:0 30 7] [14 0] 2 0
r 10.691394972 _4_ RTR  --- 30 ack 60 [13a 4 7 800] ------- [7:0 0:0 32 4] [12 0] 1 0
SFf 10.691394972 _4_ 30 [7 -> 0] 3 to 3
f 10.691394972 _4_ RTR  --- 30 ack 60 [13a 4 7 800] ------- [7:0 0:0 31 3] [12 0] 1 0