n -t * -s 0  -x 602 -y 467 -Z 0 -z 125  -v circle -c black
n -t * -s 1  -x 743 -y 557 -Z 0 -z 125  -v circle -c black
n -t * -s 2  -x 932 -y 556 -Z 0 -z 125  -v circle -c black
n -t * -s 3  -x 1124 -y 566 -Z 0 -z 125  -v circle -c black
n -t * -s 4  -x 1268 -y 507 -Z 0 -z 125  -v circle -c black
n -t * -s 5  -x 752 -y 302 -Z 0 -z 125  -v circle -c black
n -t * -s 6  -x 968 -y 300 -Z 0 -z 125  -v circle -c black
n -t * -s 7  -x 1209 -y 291 -Z 0 -z 125  -v circle -c black
V -t * -v 1.0a5 -a 0
W -t * -x 1000 -y 1000
A -t * -n 1 -p 0 -o 0x7fffffff -c 30 -a 1
A -t * -h 1 -m 1073741823 -s 0
+ -t 10.000000000 -s 0 -d -1 -p tcp -e 40 -c 2 -a 0 -i 0 -k AGT 
- -t 10.000000000 -s 0 -d -1 -p tcp -e 40 -c 2 -a 0 -i 0 -k AGT
h -t 10.000000000 -s 0 -d -1 -p tcp -e 40 -c 2 -a 0 -i 0 -k AGT
+ -t 10.008416070 -s 0 -d -1 -p DSR -e 32 -c 2 -a 0 -i 1 -k RTR 
- -t 10.008416070 -s 0 -d -1 -p DSR -e 32 -c 2 -a 0 -i 1 -k RTR
h -t 10.008416070 -s 0 -d -1 -p DSR -e 32 -c 2 -a 0 -i 1 -k RTR
+ -t 10.074991264 -s 0 -d -1 -p DSR -e 32 -c 2 -a 0 -i 3 -k RTR 
- -t 10.074991264 -s 0 -d -1 -p DSR -e 32 -c 2 -a 0 -i 3 -k RTR
h -t 10.074991264 -s 0 -d -1 -p DSR -e 32 -c 2 -a 0 -i 3 -k RTR
+ -t 10.076212966 -s 5 -d -1 -p DSR -e 48 -c 2 -a 0 -i 3 -k RTR 
- -t 10.076212966 -s 5 -d -1 -p DSR -e 48 -c 2 -a 0 -i 3 -k RTR
h -t 10.076212966 -s 5 -d -1 -p DSR -e 48 -c 2 -a 0 -i 3 -k RTR
+ -t 10.078072295 -s 1 -d -1 -p DSR -e 48 -c 2 -a 0 -i 3 -k RTR 
- -t 10.078072295 -s 1 -d -1 -p DSR -e 48 -c 2 -a 0 -i 3 -k RTR
h -t 10.078072295 -s 1 -d -1 -p DSR -e 48 -c 2 -a 0 -i 3 -k RTR
+ -t 10.080822669 -s 2 -d -1 -p DSR -e 68 -c 2 -a 0 -i 3 -k RTR 
- -t 10.080822669 -s 2 -d -1 -p DSR -e 68 -c 2 -a 0 -i 3 -k RTR
h -t 10.080822669 -s 2 -d -1 -p DSR -e 68 -c 2 -a 0 -i 3 -k RTR
+ -t 10.085680914 -s 6 -d -1 -p DSR -e 68 -c 2 -a 0 -i 3 -k RTR 
- -t 10.085680914 -s 6 -d -1 -p DSR -e 68 -c 2 -a 0 -i 3 -k RTR
h -t 10.085680914 -s 6 -d -1 -p DSR -e 68 -c 2 -a 0 -i 3 -k RTR
+ -t 10.087584368 -s 7 -d 6 -p DSR -e 60 -c 2 -a 0 -i 4 -k RTR 
- -t 10.087584368 -s 7 -d 6 -p DSR -e 60 -c 2 -a 0 -i 4 -k RTR
h -t 10.087584368 -s 7 -d 6 -p DSR -e 60 -c 2 -a 0 -i 4 -k RTR
+ -t 10.089528057 -s 3 -d -1 -p DSR -e 92 -c 2 -a 0 -i 3 -k RTR 
- -t 10.089528057 -s 3 -d -1 -p DSR -e 92 -c 2 -a 0 -i 3 -k RTR
h -t 10.089528057 -s 3 -d -1 -p DSR -e 92 -c 2 -a 0 -i 3 -k RTR
+ -t 10.092340995 -s 6 -d 5 -p DSR -e 60 -c 2 -a 0 -i 4 -k RTR 
- -t 10.092340995 -s 6 -d 5 -p DSR -e 60 -c 2 -a 0 -i 4 -k RTR
h -t 10.092340995 -s 6 -d 5 -p DSR -e 60 -c 2 -a 0 -i 4 -k RTR
+ -t 10.096961035 -s 5 -d 0 -p DSR -e 60 -c 2 -a 0 -i 4 -k RTR 
- -t 10.096961035 -s 5 -d 0 -p DSR -e 60 -c 2 -a 0 -i 4 -k RTR
h -t 10.096961035 -s 5 -d 0 -p DSR -e 60 -c 2 -a 0 -i 4 -k RTR
+ -t 10.101521238 -s 0 -d 5 -p tcp -e 84 -c 2 -a 0 -i 0 -k RTR 
- -t 10.101521238 -s 0 -d 5 -p tcp -e 84 -c 2 -a 0 -i 0 -k RTR
h -t 10.101521238 -s 0 -d 5 -p tcp -e 84 -c 2 -a 0 -i 0 -k RTR
+ -t 10.103899468 -s 5 -d 6 -p tcp -e 84 -c 2 -a 0 -i 0 -k RTR 
- -t 10.103899468 -s 5 -d 6 -p tcp -e 84 -c 2 -a 0 -i 0 -k RTR
h -t 10.103899468 -s 5 -d 6 -p tcp -e 84 -c 2 -a 0 -i 0 -k RTR
+ -t 10.106637628 -s 6 -d 7 -p tcp -e 84 -c 2 -a 0 -i 0 -k RTR 
- -t 10.106637628 -s 6 -d 7 -p tcp -e 84 -c 2 -a 0 -i 0 -k RTR
h -t 10.106637628 -s 6 -d 7 -p tcp -e 84 -c 2 -a 0 -i 0 -k RTR
r -t 10.108996040 -s 7 -d 7 -p tcp -e 40 -c 2 -a 0 -i 0 -k AGT
+ -t 10.108996040 -s 7 -d -1 -p ack -e 40 -c 2 -a 0 -i 5 -k AGT 
- -t 10.108996040 -s 7 -d -1 -p ack -e 40 -c 2 -a 0 -i 5 -k AGT
h -t 10.108996040 -s 7 -d -1 -p ack -e 40 -c 2 -a 0 -i 5 -k AGT
+ -t 10.108996040 -s 7 -d 6 -p ack -e 84 -c 2 -a 0 -i 5 -k RTR 
- -t 10.108996040 -s 7 -d 6 -p ack -e 84 -c 2 -a 0 -i 5 -k RTR
h -t 10.108996040 -s 7 -d 6 -p ack -e 84 -c 2 -a 0 -i 5 -k RTR
+ -t 10.111474452 -s 6 -d 5 -p ack -e 84 -c 2 -a 0 -i 5 -k RTR 
- -t 10.111474452 -s 6 -d 5 -p ack -e 84 -c 2 -a 0 -i 5 -k RTR
h -t 10.111474452 -s 6 -d 5 -p ack -e 84 -c 2 -a 0 -i 5 -k RTR
+ -t 10.114032612 -s 5 -d 0 -p ack -e 84 -c 2 -a 0 -i 5 -k RTR 
- -t 10.114032612 -s 5 -d 0 -p ack -e 84 -c 2 -a 0 -i 5 -k RTR
h -t 10.114032612 -s 5 -d 0 -p ack -e 84 -c 2 -a 0 -i 5 -k RTR
r -t 10.116490842 -s 0 -d 0 -p ack -e 40 -c 2 -a 0 -i 5 -k AGT
+ -t 10.116490842 -s 0 -d -1 -p tcp -e 1040 -c 2 -a 0 -i 6 -k AGT 
- -t 10.116490842 -s 0 -d -1 -p tcp -e 1040 -c 2 -a 0 -i 6 -k AGT
h -t 10.116490842 -s 0 -d -1 -p tcp -e 1040 -c 2 -a 0 -i 6 -k AGT
+ -t 10.116490842 -s 0 -d -1 -p tcp -e 1040 -c 2 -a 0 -i 7 -k AGT 
- -t 10.116490842 -s 0 -d -1 -p tcp -e 1040 -c 2 -a 0 -i 7 -k AGT
h -t 10.116490842 -s 0 -d -1 -p tcp -e 1040 -c 2 -a 0 -i 7 -k AGT
+ -t 10.116490842 -s 0 -d 5 -p tcp -e 1084 -c 2 -a 0 -i 6 -k RTR 
- -t 10.116490842 -s 0 -d 5 -p tcp -e 1084 -c 2 -a 0 -i 6 -k RTR
h -t 10.116490842 -s 0 -d 5 -p tcp -e 1084 -c 2 -a 0 -i 6 -k RTR
+ -t 10.116490842 -s 0 -d 5 -p tcp -e 1084 -c 2 -a 0 -i 7 -k RTR 
- -t 10.116490842 -s 0 -d 5 -p tcp -e 1084 -c 2 -a 0 -i 7 -k RTR
h -t 10.116490842 -s 0 -d 5 -p tcp -e 1084 -c 2 -a 0 -i 7 -k RTR
+ -t 10.126829072 -s 5 -d 6 -p tcp -e 1084 -c 2 -a 0 -i 6 -k RTR 
- -t 10.126829072 -s 5 -d 6 -p tcp -e 1084 -c 2 -a 0 -i 6 -k RTR
h -t 10.126829072 -s 5 -d 6 -p tcp -e 1084 -c 2 -a 0 -i 6 -k RTR
+ -t 10.137188045 -s 5 -d 6 -p tcp -e 1084 -c 2 -a 0 -i 7 -k RTR 
- -t 10.137188045 -s 5 -d 6 -p tcp -e 1084 -c 2 -a 0 -i 7 -k RTR
h -t 10.137188045 -s 5 -d 6 -p tcp -e 1084 -c 2 -a 0 -i 7 -k RTR
+ -t 10.147626205 -s 6 -d 7 -p tcp -e 1084 -c 2 -a 0 -i 6 -k RTR 
- -t 10.147626205 -s 6 -d 7 -p tcp -e 1084 -c 2 -a 0 -i 6 -k RTR
h -t 10.147626205 -s 6 -d 7 -p tcp -e 1084 -c 2 -a 0 -i 6 -k RTR
+ -t 10.157805085 -s 6 -d 7 -p tcp -e 1084 -c 2 -a 0 -i 7 -k RTR 
- -t 10.157805085 -s 6 -d 7 -p tcp -e 1084 -c 2 -a 0 -i 7 -k RTR
h -t 10.157805085 -s 6 -d 7 -p tcp -e 1084 -c 2 -a 0 -i 7 -k RTR
r -t 10.168343497 -s 7 -d 7 -p tcp -e 1040 -c 2 -a 0 -i 6 -k AGT
+ -t 10.168343497 -s 7 -d -1 -p ack -e 40 -c 2 -a 0 -i 8 -k AGT 
- -t 10.168343497 -s 7 -d -1 -p ack -e 40 -c 2 -a 0 -i 8 -k AGT
h -t 10.168343497 -s 7 -d -1 -p ack -e 40 -c 2 -a 0 -i 8 -k AGT
+ -t 10.168343497 -s 7 -d 6 -p ack -e 84 -c 2 -a 0 -i 8 -k RTR 
- -t 10.168343497 -s 7 -d 6 -p ack -e 84 -c 2 -a 0 -i 8 -k RTR
h -t 10.168343497 -s 7 -d 6 -p ack -e 84 -c 2 -a 0 -i 8 -k RTR
+ -t 10.170521908 -s 6 -d 5 -p ack -e 84 -c 2 -a 0 -i 8 -k RTR 
- -t 10.170521908 -s 6 -d 5 -p ack -e 84 -c 2 -a 0 -i 8 -k RTR
h -t 10.170521908 -s 6 -d 5 -p ack -e 84 -c 2 -a 0 -i 8 -k RTR
+ -t 10.172471455 -s 4 -d 3 -p DSR -e 72 -c 2 -a 0 -i 9 -k RTR 
- -t 10.172471455 -s 4 -d 3 -p DSR -e 72 -c 2 -a 0 -i 9 -k RTR
h -t 10.172471455 -s 4 -d 3 -p DSR -e 72 -c 2 -a 0 -i 9 -k RTR
+ -t 10.177382086 -s 3 -d 2 -p DSR -e 72 -c 2 -a 0 -i 9 -k RTR 
- -t 10.177382086 -s 3 -d 2 -p DSR -e 72 -c 2 -a 0 -i 9 -k RTR
h -t 10.177382086 -s 3 -d 2 -p DSR -e 72 -c 2 -a 0 -i 9 -k RTR
+ -t 10.182517572 -s 2 -d 1 -p DSR -e 72 -c 2 -a 0 -i 9 -k RTR 
- -t 10.182517572 -s 2 -d 1 -p DSR -e 72 -c 2 -a 0 -i 9 -k RTR
h -t 10.182517572 -s 2 -d 1 -p DSR -e 72 -c 2 -a 0 -i 9 -k RTR
+ -t 10.189579353 -s 1 -d 0 -p DSR -e 72 -c 2 -a 0 -i 9 -k RTR 
- -t 10.189579353 -s 1 -d 0 -p DSR -e 72 -c 2 -a 0 -i 9 -k RTR
h -t 10.189579353 -s 1 -d 0 -p DSR -e 72 -c 2 -a 0 -i 9 -k RTR
r -t 10.205978008 -s 7 -d 7 -p tcp -e 1040 -c 2 -a 0 -i 7 -k AGT
+ -t 10.205978008 -s 7 -d -1 -p ack -e 40 -c 2 -a 0 -i 10 -k AGT 
- -t 10.205978008 -s 7 -d -1 -p ack -e 40 -c 2 -a 0 -i 10 -k AGT
h -t 10.205978008 -s 7 -d -1 -p ack -e 40 -c 2 -a 0 -i 10 -k AGT
+ -t 10.205978008 -s 7 -d 6 -p ack -e 84 -c 2 -a 0 -i 10 -k RTR 
- -t 10.205978008 -s 7 -d 6 -p ack -e 84 -c 2 -a 0 -i 10 -k RTR
h -t 10.205978008 -s 7 -d 6 -p ack -e 84 -c 2 -a 0 -i 10 -k RTR
+ -t 10.208396420 -s 6 -d 5 -p ack -e 84 -c 2 -a 0 -i 10 -k RTR 
- -t 10.208396420 -s 6 -d 5 -p ack -e 84 -c 2 -a 0 -i 10 -k RTR
h -t 10.208396420 -s 6 -d 5 -p ack -e 84 -c 2 -a 0 -i 10 -k RTR
+ -t 10.210614580 -s 5 -d 0 -p ack -e 84 -c 2 -a 0 -i 8 -k RTR 
- -t 10.210614580 -s 5 -d 0 -p ack -e 84 -c 2 -a 0 -i 8 -k RTR
h -t 10.210614580 -s 5 -d 0 -p ack -e 84 -c 2 -a 0 -i 8 -k RTR
r -t 10.213252810 -s 0 -d 0 -p ack -e 40 -c 2 -a 0 -i 8 -k AGT
+ -t 10.213252810 -s 0 -d -1 -p tcp -e 1040 -c 2 -a 0 -i 11 -k AGT 
- -t 10.213252810 -s 0 -d -1 -p tcp -e 1040 -c 2 -a 0 -i 11 -k AGT
h -t 10.213252810 -s 0 -d -1 -p tcp -e 1040 -c 2 -a 0 -i 11 -k AGT
+ -t 10.213252810 -s 0 -d -1 -p tcp -e 1040 -c 2 -a 0 -i 12 -k AGT 
- -t 10.213252810 -s 0 -d -1 -p tcp -e 1040 -c 2 -a 0 -i 12 -k AGT
h -t 10.213252810 -s 0 -d -1 -p tcp -e 1040 -c 2 -a 0 -i 12 -k AGT
+ -t 10.213252810 -s 0 -d 5 -p tcp -e 1060 -c 2 -a 0 -i 11 -k RTR 
- -t 10.213252810 -s 0 -d 5 -p tcp -e 1060 -c 2 -a 0 -i 11 -k RTR
h -t 10.213252810 -s 0 -d 5 -p tcp -e 1060 -c 2 -a 0 -i 11 -k RTR
+ -t 10.213252810 -s 0 -d 5 -p tcp -e 1060 -c 2 -a 0 -i 12 -k RTR 
- -t 10.213252810 -s 0 -d 5 -p tcp -e 1060 -c 2 -a 0 -i 12 -k RTR
h -t 10.213252810 -s 0 -d 5 -p tcp -e 1060 -c 2 -a 0 -i 12 -k RTR
+ -t 10.223599040 -s 5 -d 6 -p tcp -e 1060 -c 2 -a 0 -i 11 -k RTR 
- -t 10.223599040 -s 5 -d 6 -p tcp -e 1060 -c 2 -a 0 -i 11 -k RTR
h -t 10.223599040 -s 5 -d 6 -p tcp -e 1060 -c 2 -a 0 -i 11 -k RTR
+ -t 10.225867798 -s 5 -d 0 -p ack -e 84 -c 2 -a 0 -i 10 -k RTR 
- -t 10.225867798 -s 5 -d 0 -p ack -e 84 -c 2 -a 0 -i 10 -k RTR
h -t 10.225867798 -s 5 -d 0 -p ack -e 84 -c 2 -a 0 -i 10 -k RTR
+ -t 10.236104649 -s 5 -d 6 -p tcp -e 1060 -c 2 -a 0 -i 12 -k RTR 
- -t 10.236104649 -s 5 -d 6 -p tcp -e 1060 -c 2 -a 0 -i 12 -k RTR
h -t 10.236104649 -s 5 -d 6 -p tcp -e 1060 -c 2 -a 0 -i 12 -k RTR
+ -t 10.246230809 -s 6 -d 7 -p tcp -e 1060 -c 2 -a 0 -i 11 -k RTR 
- -t 10.246230809 -s 6 -d 7 -p tcp -e 1060 -c 2 -a 0 -i 11 -k RTR
h -t 10.246230809 -s 6 -d 7 -p tcp -e 1060 -c 2 -a 0 -i 11 -k RTR
r -t 10.248529759 -s 0 -d 0 -p ack -e 40 -c 2 -a 0 -i 10 -k AGT
+ -t 10.248529759 -s 0 -d -1 -p tcp -e 1040 -c 2 -a 0 -i 13 -k AGT 
- -t 10.248529759 -s 0 -d -1 -p tcp -e 1040 -c 2 -a 0 -i 13 -k AGT
h -t 10.248529759 -s 0 -d -1 -p tcp -e 1040 -c 2 -a 0 -i 13 -k AGT
+ -t 10.248529759 -s 0 -d -1 -p tcp -e 1040 -c 2 -a 0 -i 14 -k AGT 
- -t 10.248529759 -s 0 -d -1 -p tcp -e 1040 -c 2 -a 0 -i 14 -k AGT
h -t 10.248529759 -s 0 -d -1 -p tcp -e 1040 -c 2 -a 0 -i 14 -k AGT
+ -t 10.248529759 -s 0 -d 5 -p tcp -e 1060 -c 2 -a 0 -i 13 -k RTR 
- -t 10.248529759 -s 0 -d 5 -p tcp -e 1060 -c 2 -a 0 -i 13 -k RTR
h -t 10.248529759 -s 0 -d 5 -p tcp -e 1060 -c 2 -a 0 -i 13 -k RTR
+ -t 10.248529759 -s 0 -d 5 -p tcp -e 1060 -c 2 -a 0 -i 14 -k RTR 
- -t 10.248529759 -s 0 -d 5 -p tcp -e 1060 -c 2 -a 0 -i 14 -k RTR
h -t 10.248529759 -s 0 -d 5 -p tcp -e 1060 -c 2 -a 0 -i 14 -k RTR
+ -t 10.258516662 -s 6 -d 7 -p tcp -e 1060 -c 2 -a 0 -i 12 -k RTR 
- -t 10.258516662 -s 6 -d 7 -p tcp -e 1060 -c 2 -a 0 -i 12 -k RTR
h -t 10.258516662 -s 6 -d 7 -p tcp -e 1060 -c 2 -a 0 -i 12 -k RTR
r -t 10.268963074 -s 7 -d 7 -p tcp -e 1040 -c 2 -a 0 -i 11 -k AGT
+ -t 10.268963074 -s 7 -d -1 -p ack -e 40 -c 2 -a 0 -i 15 -k AGT 
- -t 10.268963074 -s 7 -d -1 -p ack -e 40 -c 2 -a 0 -i 15 -k AGT
h -t 10.268963074 -s 7 -d -1 -p ack -e 40 -c 2 -a 0 -i 15 -k AGT
+ -t 10.268963074 -s 7 -d 6 -p ack -e 60 -c 2 -a 0 -i 15 -k RTR 
- -t 10.268963074 -s 7 -d 6 -p ack -e 60 -c 2 -a 0 -i 15 -k RTR
h -t 10.268963074 -s 7 -d 6 -p ack -e 60 -c 2 -a 0 -i 15 -k RTR
r -t 10.279110289 -s 7 -d 7 -p tcp -e 1040 -c 2 -a 0 -i 12 -k AGT
+ -t 10.279110289 -s 7 -d -1 -p ack -e 40 -c 2 -a 0 -i 16 -k AGT 
- -t 10.279110289 -s 7 -d -1 -p ack -e 40 -c 2 -a 0 -i 16 -k AGT
h -t 10.279110289 -s 7 -d -1 -p ack -e 40 -c 2 -a 0 -i 16 -k AGT
+ -t 10.279110289 -s 7 -d 6 -p ack -e 60 -c 2 -a 0 -i 16 -k RTR 
- -t 10.279110289 -s 7 -d 6 -p ack -e 60 -c 2 -a 0 -i 16 -k RTR
h -t 10.279110289 -s 7 -d 6 -p ack -e 60 -c 2 -a 0 -i 16 -k RTR
+ -t 10.287946309 -s 6 -d 5 -p ack -e 60 -c 2 -a 0 -i 15 -k RTR 
- -t 10.287946309 -s 6 -d 5 -p ack -e 60 -c 2 -a 0 -i 15 -k RTR
h -t 10.287946309 -s 6 -d 5 -p ack -e 60 -c 2 -a 0 -i 15 -k RTR
+ -t 10.290112469 -s 5 -d 0 -p ack -e 60 -c 2 -a 0 -i 15 -k RTR 
- -t 10.290112469 -s 5 -d 0 -p ack -e 60 -c 2 -a 0 -i 15 -k RTR
h -t 10.290112469 -s 5 -d 0 -p ack -e 60 -c 2 -a 0 -i 15 -k RTR
r -t 10.292098699 -s 0 -d 0 -p ack -e 40 -c 2 -a 0 -i 15 -k AGT
+ -t 10.292098699 -s 0 -d -1 -p tcp -e 1040 -c 2 -a 0 -i 17 -k AGT 
- -t 10.292098699 -s 0 -d -1 -p tcp -e 1040 -c 2 -a 0 -i 17 -k AGT
h -t 10.292098699 -s 0 -d -1 -p tcp -e 1040 -c 2 -a 0 -i 17 -k AGT
+ -t 10.292098699 -s 0 -d -1 -p tcp -e 1040 -c 2 -a 0 -i 18 -k AGT 
- -t 10.292098699 -s 0 -d -1 -p tcp -e 1040 -c 2 -a 0 -i 18 -k AGT
h -t 10.292098699 -s 0 -d -1 -p tcp -e 1040 -c 2 -a 0 -i 18 -k AGT
+ -t 10.292098699 -s 0 -d 5 -p tcp -e 1060 -c 2 -a 0 -i 17 -k RTR 
- -t 10.292098699 -s 0 -d 5 -p tcp -e 1060 -c 2 -a 0 -i 17 -k RTR
h -t 10.292098699 -s 0 -d 5 -p tcp -e 1060 -c 2 -a 0 -i 17 -k RTR
+ -t 10.292098699 -s 0 -d 5 -p tcp -e 1060 -c 2 -a 0 -i 18 -k RTR 
- -t 10.292098699 -s 0 -d 5 -p tcp -e 1060 -c 2 -a 0 -i 18 -k RTR
h -t 10.292098699 -s 0 -d 5 -p tcp -e 1060 -c 2 -a 0 -i 18 -k RTR
+ -t 10.294395891 -s 6 -d 5 -p ack -e 60 -c 2 -a 0 -i 16 -k RTR 
- -t 10.294395891 -s 6 -d 5 -p ack -e 60 -c 2 -a 0 -i 16 -k RTR
h -t 10.294395891 -s 6 -d 5 -p ack -e 60 -c 2 -a 0 -i 16 -k RTR
+ -t 10.296822051 -s 5 -d 0 -p ack -e 60 -c 2 -a 0 -i 16 -k RTR 
- -t 10.296822051 -s 5 -d 0 -p ack -e 60 -c 2 -a 0 -i 16 -k RTR
h -t 10.296822051 -s 5 -d 0 -p ack -e 60 -c 2 -a 0 -i 16 -k RTR
r -t 10.299108281 -s 0 -d 0 -p ack -e 40 -c 2 -a 0 -i 16 -k AGT
+ -t 10.299108281 -s 0 -d -1 -p tcp -e 1040 -c 2 -a 0 -i 19 -k AGT 
- -t 10.299108281 -s 0 -d -1 -p tcp -e 1040 -c 2 -a 0 -i 19 -k AGT
h -t 10.299108281 -s 0 -d -1 -p tcp -e 1040 -c 2 -a 0 -i 19 -k AGT
+ -t 10.299108281 -s 0 -d -1 -p tcp -e 1040 -c 2 -a 0 -i 20 -k AGT 
- -t 10.299108281 -s 0 -d -1 -p tcp -e 1040 -c 2 -a 0 -i 20 -k AGT
h -t 10.299108281 -s 0 -d -1 -p tcp -e 1040 -c 2 -a 0 -i 20 -k AGT
+ -t 10.299108281 -s 0 -d 5 -p tcp -e 1060 -c 2 -a 0 -i 19 -k RTR 
- -t 10.299108281 -s 0 -d 5 -p tcp -e 1060 -c 2 -a 0 -i 19 -k RTR
h -t 10.299108281 -s 0 -d 5 -p tcp -e 1060 -c 2 -a 0 -i 19 -k RTR
+ -t 10.299108281 -s 0 -d 5 -p tcp -e 1060 -c 2 -a 0 -i 20 -k RTR 
- -t 10.299108281 -s 0 -d 5 -p tcp -e 1060 -c 2 -a 0 -i 20 -k RTR
h -t 10.299108281 -s 0 -d 5 -p tcp -e 1060 -c 2 -a 0 -i 20 -k RTR
+ -t 10.310354511 -s 5 -d 6 -p tcp -e 1060 -c 2 -a 0 -i 13 -k RTR 
- -t 10.310354511 -s 5 -d 6 -p tcp -e 1060 -c 2 -a 0 -i 13 -k RTR
h -t 10.310354511 -s 5 -d 6 -p tcp -e 1060 -c 2 -a 0 -i 13 -k RTR
+ -t 10.320701484 -s 5 -d 6 -p tcp -e 1060 -c 2 -a 0 -i 14 -k RTR 
- -t 10.320701484 -s 5 -d 6 -p tcp -e 1060 -c 2 -a 0 -i 14 -k RTR
h -t 10.320701484 -s 5 -d 6 -p tcp -e 1060 -c 2 -a 0 -i 14 -k RTR
+ -t 10.330707644 -s 6 -d 7 -p tcp -e 1060 -c 2 -a 0 -i 13 -k RTR 
- -t 10.330707644 -s 6 -d 7 -p tcp -e 1060 -c 2 -a 0 -i 13 -k RTR
h -t 10.330707644 -s 6 -d 7 -p tcp -e 1060 -c 2 -a 0 -i 13 -k RTR
+ -t 10.340994524 -s 6 -d 7 -p tcp -e 1060 -c 2 -a 0 -i 14 -k RTR 
- -t 10.340994524 -s 6 -d 7 -p tcp -e 1060 -c 2 -a 0 -i 14 -k RTR
h -t 10.340994524 -s 6 -d 7 -p tcp -e 1060 -c 2 -a 0 -i 14 -k RTR
r -t 10.351200936 -s 7 -d 7 -p tcp -e 1040 -c 2 -a 0 -i 13 -k AGT
+ -t 10.351200936 -s 7 -d -1 -p ack -e 40 -c 2 -a 0 -i 21 -k AGT 
- -t 10.351200936 -s 7 -d -1 -p ack -e 40 -c 2 -a 0 -i 21 -k AGT
h -t 10.351200936 -s 7 -d -1 -p ack -e 40 -c 2 -a 0 -i 21 -k AGT
+ -t 10.351200936 -s 7 -d 6 -p ack -e 60 -c 2 -a 0 -i 21 -k RTR 
- -t 10.351200936 -s 7 -d 6 -p ack -e 60 -c 2 -a 0 -i 21 -k RTR
h -t 10.351200936 -s 7 -d 6 -p ack -e 60 -c 2 -a 0 -i 21 -k RTR
r -t 10.362374152 -s 7 -d 7 -p tcp -e 1040 -c 2 -a 0 -i 14 -k AGT
+ -t 10.362374152 -s 7 -d -1 -p ack -e 40 -c 2 -a 0 -i 22 -k AGT 
- -t 10.362374152 -s 7 -d -1 -p ack -e 40 -c 2 -a 0 -i 22 -k AGT
h -t 10.362374152 -s 7 -d -1 -p ack -e 40 -c 2 -a 0 -i 22 -k AGT
+ -t 10.362374152 -s 7 -d 6 -p ack -e 60 -c 2 -a 0 -i 22 -k RTR 
- -t 10.362374152 -s 7 -d 6 -p ack -e 60 -c 2 -a 0 -i 22 -k RTR
h -t 10.362374152 -s 7 -d 6 -p ack -e 60 -c 2 -a 0 -i 22 -k RTR
+ -t 10.379232134 -s 5 -d 6 -p tcp -e 1060 -c 2 -a 0 -i 17 -k RTR 
- -t 10.379232134 -s 5 -d 6 -p tcp -e 1060 -c 2 -a 0 -i 17 -k RTR
h -t 10.379232134 -s 5 -d 6 -p tcp -e 1060 -c 2 -a 0 -i 17 -k RTR
+ -t 10.389378294 -s 6 -d 7 -p tcp -e 1060 -c 2 -a 0 -i 17 -k RTR 
- -t 10.389378294 -s 6 -d 7 -p tcp -e 1060 -c 2 -a 0 -i 17 -k RTR
h -t 10.389378294 -s 6 -d 7 -p tcp -e 1060 -c 2 -a 0 -i 17 -k RTR
r -t 10.399504706 -s 7 -d 7 -p tcp -e 1040 -c 2 -a 0 -i 17 -k AGT
+ -t 10.399504706 -s 7 -d -1 -p ack -e 40 -c 2 -a 0 -i 23 -k AGT 
- -t 10.399504706 -s 7 -d -1 -p ack -e 40 -c 2 -a 0 -i 23 -k AGT
h -t 10.399504706 -s 7 -d -1 -p ack -e 40 -c 2 -a 0 -i 23 -k AGT
+ -t 10.399504706 -s 7 -d 6 -p ack -e 60 -c 2 -a 0 -i 23 -k RTR 
- -t 10.399504706 -s 7 -d 6 -p ack -e 60 -c 2 -a 0 -i 23 -k RTR
h -t 10.399504706 -s 7 -d 6 -p ack -e 60 -c 2 -a 0 -i 23 -k RTR
+ -t 10.411361473 -s 5 -d 6 -p tcp -e 1060 -c 2 -a 0 -i 18 -k RTR 
- -t 10.411361473 -s 5 -d 6 -p tcp -e 1060 -c 2 -a 0 -i 18 -k RTR
h -t 10.411361473 -s 5 -d 6 -p tcp -e 1060 -c 2 -a 0 -i 18 -k RTR
+ -t 10.421568446 -s 5 -d 6 -p tcp -e 1060 -c 2 -a 0 -i 19 -k RTR 
- -t 10.421568446 -s 5 -d 6 -p tcp -e 1060 -c 2 -a 0 -i 19 -k RTR
h -t 10.421568446 -s 5 -d 6 -p tcp -e 1060 -c 2 -a 0 -i 19 -k RTR
+ -t 10.431775419 -s 5 -d 6 -p tcp -e 1060 -c 2 -a 0 -i 20 -k RTR 
- -t 10.431775419 -s 5 -d 6 -p tcp -e 1060 -c 2 -a 0 -i 20 -k RTR
h -t 10.431775419 -s 5 -d 6 -p tcp -e 1060 -c 2 -a 0 -i 20 -k RTR
+ -t 10.441901579 -s 6 -d 7 -p tcp -e 1060 -c 2 -a 0 -i 18 -k RTR 
- -t 10.441901579 -s 6 -d 7 -p tcp -e 1060 -c 2 -a 0 -i 18 -k RTR
h -t 10.441901579 -s 6 -d 7 -p tcp -e 1060 -c 2 -a 0 -i 18 -k RTR
+ -t 10.451988460 -s 6 -d 7 -p tcp -e 1060 -c 2 -a 0 -i 19 -k RTR 
- -t 10.451988460 -s 6 -d 7 -p tcp -e 1060 -c 2 -a 0 -i 19 -k RTR
h -t 10.451988460 -s 6 -d 7 -p tcp -e 1060 -c 2 -a 0 -i 19 -k RTR
r -t 10.462114871 -s 7 -d 7 -p tcp -e 1040 -c 2 -a 0 -i 18 -k AGT
+ -t 10.462114871 -s 7 -d -1 -p ack -e 40 -c 2 -a 0 -i 24 -k AGT 
- -t 10.462114871 -s 7 -d -1 -p ack -e 40 -c 2 -a 0 -i 24 -k AGT
h -t 10.462114871 -s 7 -d -1 -p ack -e 40 -c 2 -a 0 -i 24 -k AGT
+ -t 10.462114871 -s 7 -d 6 -p ack -e 60 -c 2 -a 0 -i 24 -k RTR 
- -t 10.462114871 -s 7 -d 6 -p ack -e 60 -c 2 -a 0 -i 24 -k RTR
h -t 10.462114871 -s 7 -d 6 -p ack -e 60 -c 2 -a 0 -i 24 -k RTR
+ -t 10.472486555 -s 6 -d 7 -p tcp -e 1060 -c 2 -a 0 -i 20 -k RTR 
- -t 10.472486555 -s 6 -d 7 -p tcp -e 1060 -c 2 -a 0 -i 20 -k RTR
h -t 10.472486555 -s 6 -d 7 -p tcp -e 1060 -c 2 -a 0 -i 20 -k RTR
r -t 10.482652967 -s 7 -d 7 -p tcp -e 1040 -c 2 -a 0 -i 19 -k AGT
+ -t 10.482652967 -s 7 -d -1 -p ack -e 40 -c 2 -a 0 -i 25 -k AGT 
- -t 10.482652967 -s 7 -d -1 -p ack -e 40 -c 2 -a 0 -i 25 -k AGT
h -t 10.482652967 -s 7 -d -1 -p ack -e 40 -c 2 -a 0 -i 25 -k AGT
+ -t 10.482652967 -s 7 -d 6 -p ack -e 60 -c 2 -a 0 -i 25 -k RTR 
- -t 10.482652967 -s 7 -d 6 -p ack -e 60 -c 2 -a 0 -i 25 -k RTR
h -t 10.482652967 -s 7 -d 6 -p ack -e 60 -c 2 -a 0 -i 25 -k RTR
r -t 10.493040182 -s 7 -d 7 -p tcp -e 1040 -c 2 -a 0 -i 20 -k AGT
+ -t 10.493040182 -s 7 -d -1 -p ack -e 40 -c 2 -a 0 -i 26 -k AGT 
- -t 10.493040182 -s 7 -d -1 -p ack -e 40 -c 2 -a 0 -i 26 -k AGT
h -t 10.493040182 -s 7 -d -1 -p ack -e 40 -c 2 -a 0 -i 26 -k AGT
+ -t 10.493040182 -s 7 -d 6 -p ack -e 60 -c 2 -a 0 -i 26 -k RTR 
- -t 10.493040182 -s 7 -d 6 -p ack -e 60 -c 2 -a 0 -i 26 -k RTR
h -t 10.493040182 -s 7 -d 6 -p ack -e 60 -c 2 -a 0 -i 26 -k RTR
+ -t 10.500126594 -s 6 -d 5 -p ack -e 60 -c 2 -a 0 -i 21 -k RTR 
- -t 10.500126594 -s 6 -d 5 -p ack -e 60 -c 2 -a 0 -i 21 -k RTR
h -t 10.500126594 -s 6 -d 5 -p ack -e 60 -c 2 -a 0 -i 21 -k RTR
+ -t 10.503540362 -s 5 -d 0 -p ack -e 60 -c 2 -a 0 -i 21 -k RTR 
- -t 10.503540362 -s 5 -d 0 -p ack -e 60 -c 2 -a 0 -i 21 -k RTR
h -t 10.503540362 -s 5 -d 0 -p ack -e 60 -c 2 -a 0 -i 21 -k RTR
r -t 10.505526592 -s 0 -d 0 -p ack -e 40 -c 2 -a 0 -i 21 -k AGT
+ -t 10.505526592 -s 0 -d -1 -p tcp -e 1040 -c 2 -a 0 -i 27 -k AGT 
- -t 10.505526592 -s 0 -d -1 -p tcp -e 1040 -c 2 -a 0 -i 27 -k AGT
h -t 10.505526592 -s 0 -d -1 -p tcp -e 1040 -c 2 -a 0 -i 27 -k AGT
+ -t 10.505526592 -s 0 -d -1 -p tcp -e 1040 -c 2 -a 0 -i 28 -k AGT 
- -t 10.505526592 -s 0 -d -1 -p tcp -e 1040 -c 2 -a 0 -i 28 -k AGT
h -t 10.505526592 -s 0 -d -1 -p tcp -e 1040 -c 2 -a 0 -i 28 -k AGT
+ -t 10.505526592 -s 0 -d 5 -p tcp -e 1060 -c 2 -a 0 -i 27 -k RTR 
- -t 10.505526592 -s 0 -d 5 -p tcp -e 1060 -c 2 -a 0 -i 27 -k RTR
h -t 10.505526592 -s 0 -d 5 -p tcp -e 1060 -c 2 -a 0 -i 27 -k RTR
+ -t 10.505526592 -s 0 -d 5 -p tcp -e 1060 -c 2 -a 0 -i 28 -k RTR 
- -t 10.505526592 -s 0 -d 5 -p tcp -e 1060 -c 2 -a 0 -i 28 -k RTR
h -t 10.505526592 -s 0 -d 5 -p tcp -e 1060 -c 2 -a 0 -i 28 -k RTR
+ -t 10.515532822 -s 5 -d 6 -p tcp -e 1060 -c 2 -a 0 -i 27 -k RTR 
- -t 10.515532822 -s 5 -d 6 -p tcp -e 1060 -c 2 -a 0 -i 27 -k RTR
h -t 10.515532822 -s 5 -d 6 -p tcp -e 1060 -c 2 -a 0 -i 27 -k RTR
+ -t 10.525779795 -s 5 -d 6 -p tcp -e 1060 -c 2 -a 0 -i 28 -k RTR 
- -t 10.525779795 -s 5 -d 6 -p tcp -e 1060 -c 2 -a 0 -i 28 -k RTR
h -t 10.525779795 -s 5 -d 6 -p tcp -e 1060 -c 2 -a 0 -i 28 -k RTR
+ -t 10.535925955 -s 6 -d 7 -p tcp -e 1060 -c 2 -a 0 -i 27 -k RTR 
- -t 10.535925955 -s 6 -d 7 -p tcp -e 1060 -c 2 -a 0 -i 27 -k RTR
h -t 10.535925955 -s 6 -d 7 -p tcp -e 1060 -c 2 -a 0 -i 27 -k RTR
r -t 10.545932367 -s 7 -d 7 -p tcp -e 1040 -c 2 -a 0 -i 27 -k AGT
+ -t 10.545932367 -s 7 -d -1 -p ack -e 40 -c 2 -a 0 -i 29 -k AGT 
- -t 10.545932367 -s 7 -d -1 -p ack -e 40 -c 2 -a 0 -i 29 -k AGT
h -t 10.545932367 -s 7 -d -1 -p ack -e 40 -c 2 -a 0 -i 29 -k AGT
+ -t 10.545932367 -s 7 -d 6 -p ack -e 60 -c 2 -a 0 -i 29 -k RTR 
- -t 10.545932367 -s 7 -d 6 -p ack -e 60 -c 2 -a 0 -i 29 -k RTR
h -t 10.545932367 -s 7 -d 6 -p ack -e 60 -c 2 -a 0 -i 29 -k RTR
+ -t 10.548198778 -s 6 -d 5 -p ack -e 60 -c 2 -a 0 -i 22 -k RTR 
- -t 10.548198778 -s 6 -d 5 -p ack -e 60 -c 2 -a 0 -i 22 -k RTR
h -t 10.548198778 -s 6 -d 5 -p ack -e 60 -c 2 -a 0 -i 22 -k RTR
+ -t 10.550384939 -s 5 -d 0 -p ack -e 60 -c 2 -a 0 -i 22 -k RTR 
- -t 10.550384939 -s 5 -d 0 -p ack -e 60 -c 2 -a 0 -i 22 -k RTR
h -t 10.550384939 -s 5 -d 0 -p ack -e 60 -c 2 -a 0 -i 22 -k RTR
+ -t 10.560731099 -s 6 -d 7 -p tcp -e 1060 -c 2 -a 0 -i 28 -k RTR 
- -t 10.560731099 -s 6 -d 7 -p tcp -e 1060 -c 2 -a 0 -i 28 -k RTR
h -t 10.560731099 -s 6 -d 7 -p tcp -e 1060 -c 2 -a 0 -i 28 -k RTR
+ -t 10.562808314 -s 6 -d 5 -p ack -e 60 -c 2 -a 0 -i 23 -k RTR 
- -t 10.562808314 -s 6 -d 5 -p ack -e 60 -c 2 -a 0 -i 23 -k RTR
h -t 10.562808314 -s 6 -d 5 -p ack -e 60 -c 2 -a 0 -i 23 -k RTR
r -t 10.572834726 -s 7 -d 7 -p tcp -e 1040 -c 2 -a 0 -i 28 -k AGT
+ -t 10.572834726 -s 7 -d -1 -p ack -e 40 -c 2 -a 0 -i 30 -k AGT 
- -t 10.572834726 -s 7 -d -1 -p ack -e 40 -c 2 -a 0 -i 30 -k AGT
h -t 10.572834726 -s 7 -d -1 -p ack -e 40 -c 2 -a 0 -i 30 -k AGT
+ -t 10.572834726 -s 7 -d 6 -p ack -e 60 -c 2 -a 0 -i 30 -k RTR 
- -t 10.572834726 -s 7 -d 6 -p ack -e 60 -c 2 -a 0 -i 30 -k RTR
h -t 10.572834726 -s 7 -d 6 -p ack -e 60 -c 2 -a 0 -i 30 -k RTR
+ -t 10.574841137 -s 6 -d 5 -p ack -e 60 -c 2 -a 0 -i 24 -k RTR 
- -t 10.574841137 -s 6 -d 5 -p ack -e 60 -c 2 -a 0 -i 24 -k RTR
h -t 10.574841137 -s 6 -d 5 -p ack -e 60 -c 2 -a 0 -i 24 -k RTR
+ -t 10.576867297 -s 5 -d 0 -p ack -e 60 -c 2 -a 0 -i 23 -k RTR 
- -t 10.576867297 -s 5 -d 0 -p ack -e 60 -c 2 -a 0 -i 23 -k RTR
h -t 10.576867297 -s 5 -d 0 -p ack -e 60 -c 2 -a 0 -i 23 -k RTR
+ -t 10.579054178 -s 5 -d 0 -p ack -e 60 -c 2 -a 0 -i 24 -k RTR 
- -t 10.579054178 -s 5 -d 0 -p ack -e 60 -c 2 -a 0 -i 24 -k RTR
h -t 10.579054178 -s 5 -d 0 -p ack -e 60 -c 2 -a 0 -i 24 -k RTR
r -t 10.581180408 -s 0 -d 0 -p ack -e 40 -c 2 -a 0 -i 22 -k AGT
+ -t 10.581180408 -s 0 -d -1 -p tcp -e 1040 -c 2 -a 0 -i 31 -k AGT 
- -t 10.581180408 -s 0 -d -1 -p tcp -e 1040 -c 2 -a 0 -i 31 -k AGT
h -t 10.581180408 -s 0 -d -1 -p tcp -e 1040 -c 2 -a 0 -i 31 -k AGT
+ -t 10.581180408 -s 0 -d -1 -p tcp -e 1040 -c 2 -a 0 -i 32 -k AGT 
- -t 10.581180408 -s 0 -d -1 -p tcp -e 1040 -c 2 -a 0 -i 32 -k AGT
h -t 10.581180408 -s 0 -d -1 -p tcp -e 1040 -c 2 -a 0 -i 32 -k AGT
+ -t 10.581180408 -s 0 -d 5 -p tcp -e 1060 -c 2 -a 0 -i 31 -k RTR 
- -t 10.581180408 -s 0 -d 5 -p tcp -e 1060 -c 2 -a 0 -i 31 -k RTR
h -t 10.581180408 -s 0 -d 5 -p tcp -e 1060 -c 2 -a 0 -i 31 -k RTR
+ -t 10.581180408 -s 0 -d 5 -p tcp -e 1060 -c 2 -a 0 -i 32 -k RTR 
- -t 10.581180408 -s 0 -d 5 -p tcp -e 1060 -c 2 -a 0 -i 32 -k RTR
h -t 10.581180408 -s 0 -d 5 -p tcp -e 1060 -c 2 -a 0 -i 32 -k RTR
+ -t 10.592486637 -s 5 -d 6 -p tcp -e 1060 -c 2 -a 0 -i 31 -k RTR 
- -t 10.592486637 -s 5 -d 6 -p tcp -e 1060 -c 2 -a 0 -i 31 -k RTR
h -t 10.592486637 -s 5 -d 6 -p tcp -e 1060 -c 2 -a 0 -i 31 -k RTR
+ -t 10.602473611 -s 5 -d 6 -p tcp -e 1060 -c 2 -a 0 -i 32 -k RTR 
- -t 10.602473611 -s 5 -d 6 -p tcp -e 1060 -c 2 -a 0 -i 32 -k RTR
h -t 10.602473611 -s 5 -d 6 -p tcp -e 1060 -c 2 -a 0 -i 32 -k RTR
r -t 10.604579841 -s 0 -d 0 -p ack -e 40 -c 2 -a 0 -i 23 -k AGT
+ -t 10.604579841 -s 0 -d -1 -p tcp -e 1040 -c 2 -a 0 -i 33 -k AGT 
- -t 10.604579841 -s 0 -d -1 -p tcp -e 1040 -c 2 -a 0 -i 33 -k AGT
h -t 10.604579841 -s 0 -d -1 -p tcp -e 1040 -c 2 -a 0 -i 33 -k AGT
+ -t 10.604579841 -s 0 -d -1 -p tcp -e 1040 -c 2 -a 0 -i 34 -k AGT 
- -t 10.604579841 -s 0 -d -1 -p tcp -e 1040 -c 2 -a 0 -i 34 -k AGT
h -t 10.604579841 -s 0 -d -1 -p tcp -e 1040 -c 2 -a 0 -i 34 -k AGT
+ -t 10.604579841 -s 0 -d 5 -p tcp -e 1060 -c 2 -a 0 -i 33 -k RTR 
- -t 10.604579841 -s 0 -d 5 -p tcp -e 1060 -c 2 -a 0 -i 33 -k RTR
h -t 10.604579841 -s 0 -d 5 -p tcp -e 1060 -c 2 -a 0 -i 33 -k RTR
+ -t 10.604579841 -s 0 -d 5 -p tcp -e 1060 -c 2 -a 0 -i 34 -k RTR 
- -t 10.604579841 -s 0 -d 5 -p tcp -e 1060 -c 2 -a 0 -i 34 -k RTR
h -t 10.604579841 -s 0 -d 5 -p tcp -e 1060 -c 2 -a 0 -i 34 -k RTR
+ -t 10.614686070 -s 5 -d 6 -p tcp -e 1060 -c 2 -a 0 -i 33 -k RTR 
- -t 10.614686070 -s 5 -d 6 -p tcp -e 1060 -c 2 -a 0 -i 33 -k RTR
h -t 10.614686070 -s 5 -d 6 -p tcp -e 1060 -c 2 -a 0 -i 33 -k RTR
r -t 10.616852300 -s 0 -d 0 -p ack -e 40 -c 2 -a 0 -i 24 -k AGT
+ -t 10.616852300 -s 0 -d -1 -p tcp -e 1040 -c 2 -a 0 -i 35 -k AGT 
- -t 10.616852300 -s 0 -d -1 -p tcp -e 1040 -c 2 -a 0 -i 35 -k AGT
h -t 10.616852300 -s 0 -d -1 -p tcp -e 1040 -c 2 -a 0 -i 35 -k AGT
+ -t 10.616852300 -s 0 -d -1 -p tcp -e 1040 -c 2 -a 0 -i 36 -k AGT 
- -t 10.616852300 -s 0 -d -1 -p tcp -e 1040 -c 2 -a 0 -i 36 -k AGT
h -t 10.616852300 -s 0 -d -1 -p tcp -e 1040 -c 2 -a 0 -i 36 -k AGT
+ -t 10.616852300 -s 0 -d 5 -p tcp -e 1060 -c 2 -a 0 -i 35 -k RTR 
- -t 10.616852300 -s 0 -d 5 -p tcp -e 1060 -c 2 -a 0 -i 35 -k RTR
h -t 10.616852300 -s 0 -d 5 -p tcp -e 1060 -c 2 -a 0 -i 35 -k RTR
+ -t 10.616852300 -s 0 -d 5 -p tcp -e 1060 -c 2 -a 0 -i 36 -k RTR 
- -t 10.616852300 -s 0 -d 5 -p tcp -e 1060 -c 2 -a 0 -i 36 -k RTR
h -t 10.616852300 -s 0 -d 5 -p tcp -e 1060 -c 2 -a 0 -i 36 -k RTR
+ -t 10.626899204 -s 6 -d 7 -p tcp -e 1060 -c 2 -a 0 -i 31 -k RTR 
- -t 10.626899204 -s 6 -d 7 -p tcp -e 1060 -c 2 -a 0 -i 31 -k RTR
h -t 10.626899204 -s 6 -d 7 -p tcp -e 1060 -c 2 -a 0 -i 31 -k RTR
r -t 10.637065615 -s 7 -d 7 -p tcp -e 1040 -c 2 -a 0 -i 31 -k AGT
+ -t 10.637065615 -s 7 -d -1 -p ack -e 40 -c 2 -a 0 -i 37 -k AGT 
- -t 10.637065615 -s 7 -d -1 -p ack -e 40 -c 2 -a 0 -i 37 -k AGT
h -t 10.637065615 -s 7 -d -1 -p ack -e 40 -c 2 -a 0 -i 37 -k AGT
+ -t 10.637065615 -s 7 -d 6 -p ack -e 60 -c 2 -a 0 -i 37 -k RTR 
- -t 10.637065615 -s 7 -d 6 -p ack -e 60 -c 2 -a 0 -i 37 -k RTR
h -t 10.637065615 -s 7 -d 6 -p ack -e 60 -c 2 -a 0 -i 37 -k RTR
+ -t 10.647402382 -s 5 -d 6 -p tcp -e 1060 -c 2 -a 0 -i 34 -k RTR 
- -t 10.647402382 -s 5 -d 6 -p tcp -e 1060 -c 2 -a 0 -i 34 -k RTR
h -t 10.647402382 -s 5 -d 6 -p tcp -e 1060 -c 2 -a 0 -i 34 -k RTR
+ -t 10.653714393 -s 7 -d 4 -p ack -e 92 -c 2 -a 0 -i 25 -k RTR 
- -t 10.653714393 -s 7 -d 4 -p ack -e 92 -c 2 -a 0 -i 25 -k RTR
h -t 10.653714393 -s 7 -d 4 -p ack -e 92 -c 2 -a 0 -i 25 -k RTR
+ -t 10.653714393 -s 7 -d 4 -p ack -e 92 -c 2 -a 0 -i 26 -k RTR 
- -t 10.653714393 -s 7 -d 4 -p ack -e 92 -c 2 -a 0 -i 26 -k RTR
h -t 10.653714393 -s 7 -d 4 -p ack -e 92 -c 2 -a 0 -i 26 -k RTR
+ -t 10.653714393 -s 7 -d 4 -p ack -e 92 -c 2 -a 0 -i 29 -k RTR 
- -t 10.653714393 -s 7 -d 4 -p ack -e 92 -c 2 -a 0 -i 29 -k RTR
h -t 10.653714393 -s 7 -d 4 -p ack -e 92 -c 2 -a 0 -i 29 -k RTR
+ -t 10.653714393 -s 7 -d 4 -p ack -e 60 -c 2 -a 0 -i 30 -k RTR 
- -t 10.653714393 -s 7 -d 4 -p ack -e 60 -c 2 -a 0 -i 30 -k RTR
h -t 10.653714393 -s 7 -d 4 -p ack -e 60 -c 2 -a 0 -i 30 -k RTR
+ -t 10.653714393 -s 7 -d 4 -p ack -e 60 -c 2 -a 0 -i 37 -k RTR 
- -t 10.653714393 -s 7 -d 4 -p ack -e 60 -c 2 -a 0 -i 37 -k RTR
h -t 10.653714393 -s 7 -d 4 -p ack -e 60 -c 2 -a 0 -i 37 -k RTR
+ -t 10.656772632 -s 4 -d 3 -p ack -e 92 -c 2 -a 0 -i 25 -k RTR 
- -t 10.656772632 -s 4 -d 3 -p ack -e 92 -c 2 -a 0 -i 25 -k RTR
h -t 10.656772632 -s 4 -d 3 -p ack -e 92 -c 2 -a 0 -i 25 -k RTR
+ -t 10.657609356 -s 5 -d 6 -p tcp -e 1060 -c 2 -a 0 -i 35 -k RTR 
- -t 10.657609356 -s 5 -d 6 -p tcp -e 1060 -c 2 -a 0 -i 35 -k RTR
h -t 10.657609356 -s 5 -d 6 -p tcp -e 1060 -c 2 -a 0 -i 35 -k RTR
+ -t 10.664835617 -s 4 -d 3 -p ack -e 92 -c 2 -a 0 -i 26 -k RTR 
- -t 10.664835617 -s 4 -d 3 -p ack -e 92 -c 2 -a 0 -i 26 -k RTR
h -t 10.664835617 -s 4 -d 3 -p ack -e 92 -c 2 -a 0 -i 26 -k RTR
+ -t 10.667678603 -s 4 -d 3 -p ack -e 92 -c 2 -a 0 -i 29 -k RTR 
- -t 10.667678603 -s 4 -d 3 -p ack -e 92 -c 2 -a 0 -i 29 -k RTR
h -t 10.667678603 -s 4 -d 3 -p ack -e 92 -c 2 -a 0 -i 29 -k RTR
+ -t 10.668782329 -s 5 -d 6 -p tcp -e 1060 -c 2 -a 0 -i 36 -k RTR 
- -t 10.668782329 -s 5 -d 6 -p tcp -e 1060 -c 2 -a 0 -i 36 -k RTR
h -t 10.668782329 -s 5 -d 6 -p tcp -e 1060 -c 2 -a 0 -i 36 -k RTR
+ -t 10.689317929 -s 6 -d 7 -p tcp -e 1060 -c 2 -a 0 -i 32 -k RTR 
- -t 10.689317929 -s 6 -d 7 -p tcp -e 1060 -c 2 -a 0 -i 32 -k RTR
h -t 10.689317929 -s 6 -d 7 -p tcp -e 1060 -c 2 -a 0 -i 32 -k RTR
+ -t 10.691394972 -s 4 -d 3 -p ack -e 60 -c 2 -a 0 -i 30 -k RTR 
- -t 10.691394972 -s 4 -d 3 -p ack -e 60 -c 2 -a 0 -i 30 -k RTR
h -t 10.691394972 -s 4 -d 3 -p ack -e 60 -c 2 -a 0 -i 30 -k RTR
+ -t 10.693761957 -s 4 -d 3 -p ack -e 60 -c 2 -a 0 -i 37 -k RTR 
- -t 10.693761957 -s 4 -d 3 -p ack -e 60 -c 2 -a 0 -i 37 -k RTR
h -t 10.693761957 -s 4 -d 3 -p ack -e 60 -c 2 -a 0 -i 37 -k RTR
+ -t 10.700863670 -s 4 -d 7 -p ack -e 80 -c 2 -a 0 -i 25 -k RTR 