s 0.034797973 _1_ RTR  --- 0 message 32 [0 0 0 0] ------- [1:255 -1:255 32 0] 
r 0.035858530 _0_ RTR  --- 0 message 32 [0 ffffffff 1 800] ------- [1:255 -1:255 32 0] 
r 0.035858603 _2_ RTR  --- 0 message 32 [0 ffffffff 1 800] ------- [1:255 -1:255 32 0] 
s 0.176673288 _2_ RTR  --- 1 message 32 [0 0 0 0] ------- [2:255 -1:255 32 0] 
r 0.177853918 _1_ RTR  --- 1 message 32 [0 ffffffff 2 800] ------- [2:255 -1:255 32 0] 
r 0.177853929 _3_ RTR  --- 1 message 32 [0 ffffffff 2 800] ------- [2:255 -1:255 32 0] 
s 0.473440071 _7_ RTR  --- 2 message 32 [0 0 0 0] ------- [7:255 -1:255 32 0] 
r 0.474600817 _4_ RTR  --- 2 message 32 [0 ffffffff 7 800] ------- [7:255 -1:255 32 0] 
r 0.474600875 _6_ RTR  --- 2 message 32 [0 ffffffff 7 800] ------- [7:255 -1:255 32 0] 
s 0.629410954 _5_ RTR  --- 3 message 32 [0 0 0 0] ------- [5:255 -1:255 32 0] 
r 0.630251674 _6_ RTR  --- 3 message 32 [0 ffffffff 5 800] ------- [5:255 -1:255 32 0] 
r 0.630251697 _0_ RTR  --- 3 message 32 [0 ffffffff 5 800] ------- [5:255 -1:255 32 0] 
s 0.887007923 _3_ RTR  --- 4 message 32 [0 0 0 0] ------- [3:255 -1:255 32 0] 
r 0.888408442 _4_ RTR  --- 4 message 32 [0 ffffffff 3 800] ------- [3:255 -1:255 32 0] 
r 0.888408564 _2_ RTR  --- 4 message 32 [0 ffffffff 3 800] ------- [3:255 -1:255 32 0] 
s 1.113933027 _0_ RTR  --- 5 message 32 [0 0 0 0] ------- [0:255 -1:255 32 0] 
r 1.114793584 _1_ RTR  --- 5 message 32 [0 ffffffff 0 800] ------- [0:255 -1:255 32 0] 
r 1.114793770 _5_ RTR  --- 5 message 32 [0 ffffffff 0 800] ------- [0:255 -1:255 32 0] 
s 1.605933226 _4_ RTR  --- 6 message 32 [0 0 0 0] ------- [4:255 -1:255 32 0] 
r 1.606833745 _3_ RTR  --- 6 message 32 [0 ffffffff 4 800] ------- [4:255 -1:255 32 0] 
r 1.606833972 _7_ RTR  --- 6 message 32 [0 ffffffff 4 800] ------- [4:255 -1:255 32 0] 
s 1.636994178 _6_ RTR  --- 7 message 32 [0 0 0 0] ------- [6:255 -1:255 32 0] 
r 1.638334898 _5_ RTR  --- 7 message 32 [0 ffffffff 6 800] ------- [6:255 -1:255 32 0] 
r 1.638334982 _7_ RTR  --- 7 message 32 [0 ffffffff 6 800] ------- [6:255 -1:255 32 0] 
s 10.000000000 _0_ AGT  --- 8 tcp 40 [0 0 0 0] ------- [0:0 7:0 32 0] [0 0] 0 0
r 10.000000000 _0_ RTR  --- 8 tcp 40 [0 0 0 0] ------- [0:0 7:0 32 0] [0 0] 0 0
s 12.036978916 _2_ RTR  --- 10 message 32 [0 0 0 0] ------- [2:255 -1:255 32 0] 
r 12.037859546 _1_ RTR  --- 10 message 32 [0 ffffffff 2 800] ------- [2:255 -1:255 32 0] 
r 12.037859557 _3_ RTR  --- 10 message 32 [0 ffffffff 2 800] ------- [2:255 -1:255 32 0] 
s 12.044772009 _0_ RTR  --- 9 message 32 [0 0 0 0] ------- [0:255 -1:255 32 0] 
r 12.045932566 _1_ RTR  --- 9 message 32 [0 ffffffff 0 800] ------- [0:255 -1:255 32 0] 
r 12.045932752 _5_ RTR  --- 9 message 32 [0 ffffffff 0 800] ------- [0:255 -1:255 32 0] 
s 12.179084953 _1_ RTR  --- 11 message 32 [0 0 0 0] ------- [1:255 -1:255 32 0] 
r 12.180185511 _0_ RTR  --- 11 message 32 [0 ffffffff 1 800] ------- [1:255 -1:255 32 0] 
r 12.180185583 _2_ RTR  --- 11 message 32 [0 ffffffff 1 800] ------- [1:255 -1:255 32 0] 
s 12.184540168 _3_ RTR  --- 12 message 32 [0 0 0 0] ------- [3:255 -1:255 32 0] 
r 12.185360687 _4_ RTR  --- 12 message 32 [0 ffffffff 3 800] ------- [3:255 -1:255 32 0] 
r 12.185360809 _2_ RTR  --- 12 message 32 [0 ffffffff 3 800] ------- [3:255 -1:255 32 0] 
s 12.377341447 _7_ RTR  --- 13 message 32 [0 0 0 0] ------- [7:255 -1:255 32 0] 
r 12.378382193 _4_ RTR  --- 13 message 32 [0 ffffffff 7 800] ------- [7:255 -1:255 32 0] 
r 12.378382251 _6_ RTR  --- 13 message 32 [0 ffffffff 7 800] ------- [7:255 -1:255 32 0] 
s 12.440728958 _1_ RTR  --- 14 message 44 [0 0 0 0] ------- [1:255 -1:255 32 0] 
r 12.441885516 _0_ RTR  --- 14 message 44 [0 ffffffff 1 800] ------- [1:255 -1:255 32 0] 
r 12.441885588 _2_ RTR  --- 14 message 44 [0 ffffffff 1 800] ------- [1:255 -1:255 32 0] 
s 12.637978631 _6_ RTR  --- 17 message 32 [0 0 0 0] ------- [6:255 -1:255 32 0] 
r 12.638819351 _5_ RTR  --- 17 message 32 [0 ffffffff 6 800] ------- [6:255 -1:255 32 0] 
r 12.638819435 _7_ RTR  --- 17 message 32 [0 ffffffff 6 800] ------- [6:255 -1:255 32 0] 
s 12.845540630 _5_ RTR  --- 18 message 32 [0 0 0 0] ------- [5:255 -1:255 32 0] 
r 12.846661350 _6_ RTR  --- 18 message 32 [0 ffffffff 5 800] ------- [5:255 -1:255 32 0] 
r 12.846661373 _0_ RTR  --- 18 message 32 [0 ffffffff 5 800] ------- [5:255 -1:255 32 0] 
s 12.888909776 _4_ RTR  --- 19 message 32 [0 0 0 0] ------- [4:255 -1:255 32 0] 
r 12.889850295 _3_ RTR  --- 19 message 32 [0 ffffffff 4 800] ------- [4:255 -1:255 32 0] 
r 12.889850523 _7_ RTR  --- 19 message 32 [0 ffffffff 4 800] ------- [4:255 -1:255 32 0] 
s 13.000000000 _0_ AGT  --- 20 tcp 40 [0 0 0 0] ------- [0:0 7:0 32 0] [0 0] 0 0
r 13.000000000 _0_ RTR  --- 20 tcp 40 [0 0 0 0] ------- [0:0 7:0 32 0] [0 0] 0 0
s 13.043209514 _2_ RTR  --- 22 message 32 [0 0 0 0] ------- [2:255 -1:255 32 0] 
r 13.044110144 _1_ RTR  --- 22 message 32 [0 ffffffff 2 800] ------- [2:255 -1:255 32 0] 
r 13.044110155 _3_ RTR  --- 22 message 32 [0 ffffffff 2 800] ------- [2:255 -1:255 32 0] 
s 13.274501538 _0_ RTR  --- 23 message 32 [0 0 0 0] ------- [0:255 -1:255 32 0] 
r 13.275662096 _1_ RTR  --- 23 message 32 [0 ffffffff 0 800] ------- [0:255 -1:255 32 0] 
r 13.275662282 _5_ RTR  --- 23 message 32 [0 ffffffff 0 800] ------- [0:255 -1:255 32 0] 
s 13.591432884 _6_ RTR  --- 25 message 32 [0 0 0 0] ------- [6:255 -1:255 32 0] 
r 13.592833604 _5_ RTR  --- 25 message 32 [0 ffffffff 6 800] ------- [6:255 -1:255 32 0] 
r 13.592833688 _7_ RTR  --- 25 message 32 [0 ffffffff 6 800] ------- [6:255 -1:255 32 0] 
s 13.612417831 _3_ RTR  --- 26 message 44 [0 0 0 0] ------- [3:255 -1:255 32 0] 
r 13.613874349 _4_ RTR  --- 26 message 44 [0 ffffffff 3 800] ------- [3:255 -1:255 32 0] 
r 13.613874471 _2_ RTR  --- 26 message 44 [0 ffffffff 3 800] ------- [3:255 -1:255 32 0] 
s 13.614989796 _7_ RTR  --- 27 message 32 [0 0 0 0] ------- [7:255 -1:255 32 0] 
r 13.616110542 _4_ RTR  --- 27 message 32 [0 ffffffff 7 800] ------- [7:255 -1:255 32 0] 
r 13.616110600 _6_ RTR  --- 27 message 32 [0 ffffffff 7 800] ------- [7:255 -1:255 32 0] 
s 13.831960294 _2_ RTR  --- 28 message 44 [0 0 0 0] ------- [2:255 -1:255 32 0] 
r 13.833456925 _1_ RTR  --- 28 message 44 [0 ffffffff 2 800] ------- [2:255 -1:255 32 0] 
r 13.833456935 _3_ RTR  --- 28 message 44 [0 ffffffff 2 800] ------- [2:255 -1:255 32 0] 
s 14.610156117 _7_ RTR  --- 30 message 32 [0 0 0 0] ------- [7:255 -1:255 32 0] 
r 14.611136863 _4_ RTR  --- 30 message 32 [0 ffffffff 7 800] ------- [7:255 -1:255 32 0] 
r 14.611136920 _6_ RTR  --- 30 message 32 [0 ffffffff 7 800] ------- [7:255 -1:255 32 0] 
s 14.728825309 _3_ RTR  --- 31 message 44 [0 0 0 0] ------- [3:255 -1:255 32 0] 
r 14.729901828 _4_ RTR  --- 31 message 44 [0 ffffffff 3 800] ------- [3:255 -1:255 32 0] 
r 14.729901950 _2_ RTR  --- 31 message 44 [0 ffffffff 3 800] ------- [3:255 -1:255 32 0] 
s 16.245073764 _4_ RTR  --- 32 message 32 [0 0 0 0] ------- [4:255 -1:255 32 0] 
r 16.246254283 _3_ RTR  --- 32 message 32 [0 ffffffff 4 800] ------- [4:255 -1:255 32 0] 
r 16.246254510 _7_ RTR  --- 32 message 32 [0 ffffffff 4 800] ------- [4:255 -1:255 32 0] 
s 19.000000000 _0_ AGT  --- 33 tcp 40 [0 0 0 0] ------- [0:0 7:0 32 0] [0 0] 0 0
r 19.000000000 _0_ RTR  --- 33 tcp 40 [0 0 0 0] ------- [0:0 7:0 32 0] [0 0] 0 0
M 20.00000 5 (752.00, 302.00, 0.00), (500.00, 100.00), 100.00
s 24.039571747 _3_ RTR  --- 34 message 32 [0 0 0 0] ------- [3:255 -1:255 32 0] 
r 24.040892266 _4_ RTR  --- 34 message 32 [0 ffffffff 3 800] ------- [3:255 -1:255 32 0] 
r 24.040892388 _2_ RTR  --- 34 message 32 [0 ffffffff 3 800] ------- [3:255 -1:255 32 0] 
s 24.052086318 _5_ RTR  --- 35 message 44 [0 0 0 0] ------- [5:255 -1:255 32 0] 
s 24.184698125 _0_ RTR  --- 36 message 56 [0 0 0 0] ------- [0:255 -1:255 32 0] 
s 24.185520659 _4_ RTR  --- 37 message 44 [0 0 0 0] ------- [4:255 -1:255 32 0] 
r 24.185710683 _1_ RTR  --- 36 message 56 [0 ffffffff 0 800] ------- [0:255 -1:255 32 0] 
r 24.186957177 _3_ RTR  --- 37 message 44 [0 ffffffff 4 800] ------- [4:255 -1:255 32 0] 
r 24.186957405 _7_ RTR  --- 37 message 44 [0 ffffffff 4 800] ------- [4:255 -1:255 32 0] 
s 24.386951010 _1_ RTR  --- 38 message 56 [0 0 0 0] ------- [1:255 -1:255 32 0] 
r 24.388023568 _0_ RTR  --- 38 message 56 [0 ffffffff 1 800] ------- [1:255 -1:255 32 0] 
r 24.388023640 _2_ RTR  --- 38 message 56 [0 ffffffff 1 800] ------- [1:255 -1:255 32 0] 
s 24.643048759 _7_ RTR  --- 39 message 44 [0 0 0 0] ------- [7:255 -1:255 32 0] 
r 24.643985505 _4_ RTR  --- 39 message 44 [0 ffffffff 7 800] ------- [7:255 -1:255 32 0] 
r 24.643985563 _6_ RTR  --- 39 message 44 [0 ffffffff 7 800] ------- [7:255 -1:255 32 0] 
s 25.390606980 _1_ RTR  --- 40 message 32 [0 0 0 0] ------- [1:255 -1:255 32 0] 
r 25.391807537 _0_ RTR  --- 40 message 32 [0 ffffffff 1 800] ------- [1:255 -1:255 32 0] 
r 25.391807610 _2_ RTR  --- 40 message 32 [0 ffffffff 1 800] ------- [1:255 -1:255 32 0] 
s 25.617695737 _6_ RTR  --- 42 message 56 [0 0 0 0] ------- [6:255 -1:255 32 0] 
r 25.619248541 _7_ RTR  --- 42 message 56 [0 ffffffff 6 800] ------- [6:255 -1:255 32 0] 
s 25.622382299 _2_ RTR  --- 41 message 44 [0 0 0 0] ------- [2:255 -1:255 32 0] 
r 25.623438929 _1_ RTR  --- 41 message 44 [0 ffffffff 2 800] ------- [2:255 -1:255 32 0] 
r 25.623438940 _3_ RTR  --- 41 message 44 [0 ffffffff 2 800] ------- [2:255 -1:255 32 0] 
s 25.639214470 _7_ RTR  --- 43 message 44 [0 0 0 0] ------- [7:255 -1:255 32 0] 
r 25.640231217 _4_ RTR  --- 43 message 44 [0 ffffffff 7 800] ------- [7:255 -1:255 32 0] 
r 25.640231274 _6_ RTR  --- 43 message 44 [0 ffffffff 7 800] ------- [7:255 -1:255 32 0] 
s 25.707640288 _7_ RTR  --- 44 message 56 [0 0 0 0] ------- [7:255 -1:255 32 0] 
r 25.709233035 _4_ RTR  --- 44 message 56 [0 ffffffff 7 800] ------- [7:255 -1:255 32 0] 
r 25.709233092 _6_ RTR  --- 44 message 56 [0 ffffffff 7 800] ------- [7:255 -1:255 32 0] 
s 26.485453868 _2_ RTR  --- 45 message 56 [0 0 0 0] ------- [2:255 -1:255 32 0] 
r 26.486606498 _1_ RTR  --- 45 message 56 [0 ffffffff 2 800] ------- [2:255 -1:255 32 0] 
r 26.486606509 _3_ RTR  --- 45 message 56 [0 ffffffff 2 800] ------- [2:255 -1:255 32 0] 
s 27.352593285 _3_ RTR  --- 46 message 56 [0 0 0 0] ------- [3:255 -1:255 32 0] 
r 27.353785803 _4_ RTR  --- 46 message 56 [0 ffffffff 3 800] ------- [3:255 -1:255 32 0] 
r 27.353785925 _2_ RTR  --- 46 message 56 [0 ffffffff 3 800] ------- [3:255 -1:255 32 0] 
s 27.604550939 _6_ RTR  --- 47 message 56 [0 0 0 0] ------- [6:255 -1:255 32 0] 
r 27.605803743 _7_ RTR  --- 47 message 56 [0 ffffffff 6 800] ------- [6:255 -1:255 32 0] 
s 27.759180793 _5_ RTR  --- 48 message 68 [0 0 0 0] ------- [5:255 -1:255 32 0] 
s 27.907216497 _0_ RTR  --- 49 message 44 [0 0 0 0] ------- [0:255 -1:255 32 0] 
r 27.908673054 _1_ RTR  --- 49 message 44 [0 ffffffff 0 800] ------- [0:255 -1:255 32 0] 
s 30.801367120 _4_ RTR  --- 50 message 44 [0 0 0 0] ------- [4:255 -1:255 32 0] 
r 30.802643639 _3_ RTR  --- 50 message 44 [0 ffffffff 4 800] ------- [4:255 -1:255 32 0] 
r 30.802643866 _7_ RTR  --- 50 message 44 [0 ffffffff 4 800] ------- [4:255 -1:255 32 0] 
s 31.000000000 _0_ AGT  --- 51 tcp 40 [0 0 0 0] ------- [0:0 7:0 32 0] [0 0] 0 0
r 31.000000000 _0_ RTR  --- 51 tcp 40 [0 0 0 0] ------- [0:0 7:0 32 0] [0 0] 0 0
s 36.047464830 _4_ RTR  --- 52 message 44 [0 0 0 0] ------- [4:255 -1:255 32 0] 
r 36.048941349 _3_ RTR  --- 52 message 44 [0 ffffffff 4 800] ------- [4:255 -1:255 32 0] 
r 36.048941577 _7_ RTR  --- 52 message 44 [0 ffffffff 4 800] ------- [4:255 -1:255 32 0] 
s 36.189497056 _1_ RTR  --- 53 message 56 [0 0 0 0] ------- [1:255 -1:255 32 0] 
r 36.190549614 _0_ RTR  --- 53 message 56 [0 ffffffff 1 800] ------- [1:255 -1:255 32 0] 
r 36.190549686 _2_ RTR  --- 53 message 56 [0 ffffffff 1 800] ------- [1:255 -1:255 32 0] 
s 36.193074459 _3_ RTR  --- 54 message 32 [0 0 0 0] ------- [3:255 -1:255 32 0] 
s 36.193511822 _7_ RTR  --- 55 message 44 [0 0 0 0] ------- [7:255 -1:255 32 0] 
r 36.194394978 _4_ RTR  --- 54 message 32 [0 ffffffff 3 800] ------- [3:255 -1:255 32 0] 
r 36.194395100 _2_ RTR  --- 54 message 32 [0 ffffffff 3 800] ------- [3:255 -1:255 32 0] 
r 36.195646165 _4_ RTR  --- 55 message 44 [0 ffffffff 7 800] ------- [7:255 -1:255 32 0] 
r 36.195646222 _6_ RTR  --- 55 message 44 [0 ffffffff 7 800] ------- [7:255 -1:255 32 0] 
s 36.389217798 _2_ RTR  --- 56 message 44 [0 0 0 0] ------- [2:255 -1:255 32 0] 
r 36.390454428 _1_ RTR  --- 56 message 44 [0 ffffffff 2 800] ------- [2:255 -1:255 32 0] 
r 36.390454439 _3_ RTR  --- 56 message 44 [0 ffffffff 2 800] ------- [2:255 -1:255 32 0] 
s 37.043035639 _4_ RTR  --- 57 message 56 [0 0 0 0] ------- [4:255 -1:255 32 0] 
r 37.044348158 _3_ RTR  --- 57 message 56 [0 ffffffff 4 800] ------- [4:255 -1:255 32 0] 
r 37.044348386 _7_ RTR  --- 57 message 56 [0 ffffffff 4 800] ------- [4:255 -1:255 32 0] 
s 37.400029647 _0_ RTR  --- 58 message 32 [0 0 0 0] ------- [0:255 -1:255 32 0] 
r 37.401310204 _1_ RTR  --- 58 message 32 [0 ffffffff 0 800] ------- [0:255 -1:255 32 0] 
s 37.631739383 _1_ RTR  --- 59 message 56 [0 0 0 0] ------- [1:255 -1:255 32 0] 
r 37.632831941 _0_ RTR  --- 59 message 56 [0 ffffffff 1 800] ------- [1:255 -1:255 32 0] 
r 37.632832013 _2_ RTR  --- 59 message 56 [0 ffffffff 1 800] ------- [1:255 -1:255 32 0] 
s 37.641529689 _6_ RTR  --- 60 message 44 [0 0 0 0] ------- [6:255 -1:255 32 0] 
r 37.642786493 _7_ RTR  --- 60 message 44 [0 ffffffff 6 800] ------- [6:255 -1:255 32 0] 
s 39.016832899 _1_ RTR  --- 61 message 92 [0 0 0 0] ------- [1:255 -1:255 32 0] 
r 39.018353456 _0_ RTR  --- 61 message 92 [0 ffffffff 1 800] ------- [1:255 -1:255 32 0] 
r 39.018353529 _2_ RTR  --- 61 message 92 [0 ffffffff 1 800] ------- [1:255 -1:255 32 0] 
s 40.076713181 _7_ RTR  --- 62 message 80 [0 0 0 0] ------- [7:255 -1:255 32 0] 
r 40.078377928 _4_ RTR  --- 62 message 80 [0 ffffffff 7 800] ------- [7:255 -1:255 32 0] 
r 40.078377985 _6_ RTR  --- 62 message 80 [0 ffffffff 7 800] ------- [7:255 -1:255 32 0] 
s 40.121333826 _2_ RTR  --- 63 message 56 [0 0 0 0] ------- [2:255 -1:255 32 0] 
r 40.122626456 _1_ RTR  --- 63 message 56 [0 ffffffff 2 800] ------- [2:255 -1:255 32 0] 
r 40.122626467 _3_ RTR  --- 63 message 56 [0 ffffffff 2 800] ------- [2:255 -1:255 32 0] 
s 41.018392386 _5_ RTR  --- 64 message 68 [0 0 0 0] ------- [5:255 -1:255 32 0] 
s 42.122949923 _3_ RTR  --- 65 message 44 [0 0 0 0] ------- [3:255 -1:255 32 0] 
r 42.123966442 _4_ RTR  --- 65 message 44 [0 ffffffff 3 800] ------- [3:255 -1:255 32 0] 
r 42.123966564 _2_ RTR  --- 65 message 44 [0 ffffffff 3 800] ------- [3:255 -1:255 32 0] 
s 42.250358738 _6_ RTR  --- 66 message 56 [0 0 0 0] ------- [6:255 -1:255 32 0] 
r 42.251631542 _7_ RTR  --- 66 message 56 [0 ffffffff 6 800] ------- [6:255 -1:255 32 0] 
s 42.465582188 _0_ RTR  --- 67 message 44 [0 0 0 0] ------- [0:255 -1:255 32 0] 
r 42.466598746 _1_ RTR  --- 67 message 44 [0 ffffffff 0 800] ------- [0:255 -1:255 32 0] 
s 44.861834786 _4_ RTR  --- 68 message 44 [0 0 0 0] ------- [4:255 -1:255 32 0] 
r 44.863271305 _3_ RTR  --- 68 message 44 [0 ffffffff 4 800] ------- [4:255 -1:255 32 0] 
r 44.863271532 _7_ RTR  --- 68 message 44 [0 ffffffff 4 800] ------- [4:255 -1:255 32 0] 
s 48.049296915 _7_ RTR  --- 69 message 44 [0 0 0 0] ------- [7:255 -1:255 32 0] 
r 48.050813662 _4_ RTR  --- 69 message 44 [0 ffffffff 7 800] ------- [7:255 -1:255 32 0] 
r 48.050813719 _6_ RTR  --- 69 message 44 [0 ffffffff 7 800] ------- [7:255 -1:255 32 0] 
s 48.194997101 _2_ RTR  --- 70 message 56 [0 0 0 0] ------- [2:255 -1:255 32 0] 
r 48.196029731 _1_ RTR  --- 70 message 56 [0 ffffffff 2 800] ------- [2:255 -1:255 32 0] 
r 48.196029742 _3_ RTR  --- 70 message 56 [0 ffffffff 2 800] ------- [2:255 -1:255 32 0] 
s 48.196950283 _6_ RTR  --- 71 message 44 [0 0 0 0] ------- [6:255 -1:255 32 0] 
r 48.198287087 _7_ RTR  --- 71 message 44 [0 ffffffff 6 800] ------- [6:255 -1:255 32 0] 
s 48.393760993 _3_ RTR  --- 72 message 44 [0 0 0 0] ------- [3:255 -1:255 32 0] 
r 48.394817512 _4_ RTR  --- 72 message 44 [0 ffffffff 3 800] ------- [3:255 -1:255 32 0] 
r 48.394817634 _2_ RTR  --- 72 message 44 [0 ffffffff 3 800] ------- [3:255 -1:255 32 0] 
s 49.398223857 _3_ RTR  --- 73 message 44 [0 0 0 0] ------- [3:255 -1:255 32 0] 
r 49.399580375 _4_ RTR  --- 73 message 44 [0 ffffffff 3 800] ------- [3:255 -1:255 32 0] 
r 49.399580498 _2_ RTR  --- 73 message 44 [0 ffffffff 3 800] ------- [3:255 -1:255 32 0] 
s 49.639843017 _0_ RTR  --- 74 message 92 [0 0 0 0] ------- [0:255 -1:255 32 0] 
r 49.641383575 _1_ RTR  --- 74 message 92 [0 ffffffff 0 800] ------- [0:255 -1:255 32 0] 
s 51.612606539 _7_ RTR  --- 75 message 92 [0 0 0 0] ------- [7:255 -1:255 32 0] 
r 51.614327286 _4_ RTR  --- 75 message 92 [0 ffffffff 7 800] ------- [7:255 -1:255 32 0] 
r 51.614327343 _6_ RTR  --- 75 message 92 [0 ffffffff 7 800] ------- [7:255 -1:255 32 0] 
s 51.963984537 _2_ RTR  --- 76 message 92 [0 0 0 0] ------- [2:255 -1:255 32 0] 
r 51.965745167 _1_ RTR  --- 76 message 92 [0 ffffffff 2 800] ------- [2:255 -1:255 32 0] 
r 51.965745178 _3_ RTR  --- 76 message 92 [0 ffffffff 2 800] ------- [2:255 -1:255 32 0] 
s 53.290537163 _1_ RTR  --- 77 message 44 [0 0 0 0] ------- [1:255 -1:255 32 0] 
r 53.292013721 _0_ RTR  --- 77 message 44 [0 ffffffff 1 800] ------- [1:255 -1:255 32 0] 
r 53.292013793 _2_ RTR  --- 77 message 44 [0 ffffffff 1 800] ------- [1:255 -1:255 32 0] 
s 53.890060802 _5_ RTR  --- 78 message 68 [0 0 0 0] ------- [5:255 -1:255 32 0] 
s 54.823709549 _6_ RTR  --- 79 message 68 [0 0 0 0] ------- [6:255 -1:255 32 0] 
r 54.824998353 _7_ RTR  --- 79 message 68 [0 ffffffff 6 800] ------- [6:255 -1:255 32 0] 
s 55.000000000 _0_ AGT  --- 80 tcp 40 [0 0 0 0] ------- [0:0 7:0 32 0] [0 0] 0 0
r 55.000000000 _0_ RTR  --- 80 tcp 40 [0 0 0 0] ------- [0:0 7:0 32 0] [0 0] 0 0
s 55.962708548 _3_ RTR  --- 81 message 68 [0 0 0 0] ------- [3:255 -1:255 32 0] 
r 55.963937066 _4_ RTR  --- 81 message 68 [0 ffffffff 3 800] ------- [3:255 -1:255 32 0] 
r 55.963937189 _2_ RTR  --- 81 message 68 [0 ffffffff 3 800] ------- [3:255 -1:255 32 0] 
s 57.150980053 _4_ RTR  --- 82 message 56 [0 0 0 0] ------- [4:255 -1:255 32 0] 
r 57.152192571 _3_ RTR  --- 82 message 56 [0 ffffffff 4 800] ------- [4:255 -1:255 32 0] 
r 57.152192799 _7_ RTR  --- 82 message 56 [0 ffffffff 4 800] ------- [4:255 -1:255 32 0] 
s 57.847317359 _6_ RTR  --- 83 message 32 [0 0 0 0] ------- [6:255 -1:255 32 0] 
r 57.848698163 _7_ RTR  --- 83 message 32 [0 ffffffff 6 800] ------- [6:255 -1:255 32 0] 
s 57.851586539 _0_ RTR  --- 84 message 32 [0 0 0 0] ------- [0:255 -1:255 32 0] 
r 57.852787096 _1_ RTR  --- 84 message 32 [0 ffffffff 0 800] ------- [0:255 -1:255 32 0] 
s 58.279650088 _5_ RTR  --- 85 message 44 [0 0 0 0] ------- [5:255 -1:255 32 0] 
s 59.284180730 _5_ RTR  --- 86 message 56 [0 0 0 0] ------- [5:255 -1:255 32 0] 
s 60.054026266 _6_ RTR  --- 87 message 104 [0 0 0 0] ------- [6:255 -1:255 32 0] 
r 60.055703070 _7_ RTR  --- 87 message 104 [0 ffffffff 6 800] ------- [6:255 -1:255 32 0] 
s 60.199752181 _3_ RTR  --- 88 message 104 [0 0 0 0] ------- [3:255 -1:255 32 0] 
r 60.201708699 _4_ RTR  --- 88 message 104 [0 ffffffff 3 800] ------- [3:255 -1:255 32 0] 
r 60.201708822 _2_ RTR  --- 88 message 104 [0 ffffffff 3 800] ------- [3:255 -1:255 32 0] 
s 60.280419447 _5_ RTR  --- 89 message 56 [0 0 0 0] ------- [5:255 -1:255 32 0] 
s 60.399246454 _2_ RTR  --- 90 message 44 [0 0 0 0] ------- [2:255 -1:255 32 0] 
r 60.400503084 _1_ RTR  --- 90 message 44 [0 ffffffff 2 800] ------- [2:255 -1:255 32 0] 
r 60.400503095 _3_ RTR  --- 90 message 44 [0 ffffffff 2 800] ------- [2:255 -1:255 32 0] 
s 61.400334523 _2_ RTR  --- 91 message 44 [0 0 0 0] ------- [2:255 -1:255 32 0] 
r 61.401851153 _1_ RTR  --- 91 message 44 [0 ffffffff 2 800] ------- [2:255 -1:255 32 0] 
r 61.401851164 _3_ RTR  --- 91 message 44 [0 ffffffff 2 800] ------- [2:255 -1:255 32 0] 
s 64.041789914 _0_ RTR  --- 92 message 92 [0 0 0 0] ------- [0:255 -1:255 32 0] 
r 64.043090472 _1_ RTR  --- 92 message 92 [0 ffffffff 0 800] ------- [0:255 -1:255 32 0] 
s 64.396178939 _2_ RTR  --- 93 message 104 [0 0 0 0] ------- [2:255 -1:255 32 0] 
r 64.398135569 _1_ RTR  --- 93 message 104 [0 ffffffff 2 800] ------- [2:255 -1:255 32 0] 
r 64.398135580 _3_ RTR  --- 93 message 104 [0 ffffffff 2 800] ------- [2:255 -1:255 32 0] 
s 65.036485836 _7_ RTR  --- 94 message 92 [0 0 0 0] ------- [7:255 -1:255 32 0] 
r 65.038266582 _4_ RTR  --- 94 message 92 [0 ffffffff 7 800] ------- [7:255 -1:255 32 0] 
r 65.038266639 _6_ RTR  --- 94 message 92 [0 ffffffff 7 800] ------- [7:255 -1:255 32 0] 
s 66.425494300 _1_ RTR  --- 95 message 56 [0 0 0 0] ------- [1:255 -1:255 32 0] 
r 66.426926857 _0_ RTR  --- 95 message 56 [0 ffffffff 1 800] ------- [1:255 -1:255 32 0] 
r 66.426926930 _2_ RTR  --- 95 message 56 [0 ffffffff 1 800] ------- [1:255 -1:255 32 0] 
s 68.521922318 _5_ RTR  --- 96 message 68 [0 0 0 0] ------- [5:255 -1:255 32 0] 
s 70.557824962 _4_ RTR  --- 97 message 80 [0 0 0 0] ------- [4:255 -1:255 32 0] 
r 70.559289481 _3_ RTR  --- 97 message 80 [0 ffffffff 4 800] ------- [4:255 -1:255 32 0] 
r 70.559289708 _7_ RTR  --- 97 message 80 [0 ffffffff 4 800] ------- [4:255 -1:255 32 0] 
s 71.789686926 _6_ RTR  --- 98 message 92 [0 0 0 0] ------- [6:255 -1:255 32 0] 
r 71.791027729 _7_ RTR  --- 98 message 92 [0 ffffffff 6 800] ------- [6:255 -1:255 32 0] 
s 72.204480522 _4_ RTR  --- 99 message 56 [0 0 0 0] ------- [4:255 -1:255 32 0] 
r 72.205633041 _3_ RTR  --- 99 message 56 [0 ffffffff 4 800] ------- [4:255 -1:255 32 0] 
r 72.205633268 _7_ RTR  --- 99 message 56 [0 ffffffff 4 800] ------- [4:255 -1:255 32 0] 
s 72.401800208 _1_ RTR  --- 100 message 56 [0 0 0 0] ------- [1:255 -1:255 32 0] 
r 72.402852766 _0_ RTR  --- 100 message 56 [0 ffffffff 1 800] ------- [1:255 -1:255 32 0] 
s 72.402852766 _0_ RTR  --- 8 tcp 80 [0 0 0 0] ------- [0:0 7:0 32 1] [0 0] 0 0
s 72.402852766 _0_ RTR  --- 20 tcp 80 [0 0 0 0] ------- [0:0 7:0 32 1] [0 0] 0 0
D 72.402852766 _0_ IFQ  ARP 8 tcp 80 [0 0 0 800] ------- [0:0 7:0 32 1] [0 0] 0 0
s 72.402852766 _0_ RTR  --- 33 tcp 80 [0 0 0 0] ------- [0:0 7:0 32 1] [0 0] 0 0
D 72.402852766 _0_ IFQ  ARP 20 tcp 80 [0 0 0 800] ------- [0:0 7:0 32 1] [0 0] 0 0
s 72.402852766 _0_ RTR  --- 51 tcp 80 [0 0 0 0] ------- [0:0 7:0 32 1] [0 0] 0 0
D 72.402852766 _0_ RTR  CBK 33 tcp 80 [0 0 0 800] ------- [0:0 7:0 32 1] [0 0] 0 0
D 72.402852766 _0_ RTR  CBK 51 tcp 80 [0 0 0 800] ------- [0:0 7:0 32 1] [0 0] 0 0
s 72.402852766 _0_ RTR  --- 80 tcp 80 [0 0 0 0] ------- [0:0 7:0 32 1] [0 0] 0 0
r 72.402852838 _2_ RTR  --- 100 message 56 [0 ffffffff 1 800] ------- [1:255 -1:255 32 0] 
r 72.414437129 _1_ RTR  --- 80 tcp 80 [13a 1 0 800] ------- [0:0 7:0 32 1] [0 0] 1 0
f 72.414437129 _1_ RTR  --- 80 tcp 80 [13a 1 0 800] ------- [0:0 7:0 31 2] [0 0] 1 0
s 72.416322926 _3_ RTR  --- 101 message 80 [0 0 0 0] ------- [3:255 -1:255 32 0] 
r 72.421686770 _2_ RTR  --- 80 tcp 80 [13a 2 1 800] ------- [0:0 7:0 31 2] [0 0] 2 0
f 72.421686770 _2_ RTR  --- 80 tcp 80 [13a 2 1 800] ------- [0:0 7:0 30 3] [0 0] 2 0
r 72.423405929 _4_ RTR  --- 101 message 80 [0 ffffffff 3 800] ------- [3:255 -1:255 32 0] 
r 72.423406051 _2_ RTR  --- 101 message 80 [0 ffffffff 3 800] ------- [3:255 -1:255 32 0] 
r 72.428246537 _3_ RTR  --- 80 tcp 80 [13a 3 2 800] ------- [0:0 7:0 30 3] [0 0] 3 0
f 72.428246537 _3_ RTR  --- 80 tcp 80 [13a 3 2 800] ------- [0:0 7:0 29 4] [0 0] 3 0
r 72.433865168 _4_ RTR  --- 80 tcp 80 [13a 4 3 800] ------- [0:0 7:0 29 4] [0 0] 4 0
f 72.433865168 _4_ RTR  --- 80 tcp 80 [13a 4 3 800] ------- [0:0 7:0 28 7] [0 0] 4 0
r 72.439485393 _7_ AGT  --- 80 tcp 80 [13a 7 4 800] ------- [0:0 7:0 28 7] [0 0] 5 0
s 72.439485393 _7_ AGT  --- 102 ack 40 [0 0 0 0] ------- [7:0 0:0 32 0] [0 0] 0 0
r 72.439485393 _7_ RTR  --- 102 ack 40 [0 0 0 0] ------- [7:0 0:0 32 0] [0 0] 0 0
s 72.439485393 _7_ RTR  --- 102 ack 60 [0 0 0 0] ------- [7:0 0:0 32 4] [0 0] 0 0
r 72.441871632 _4_ RTR  --- 102 ack 60 [13a 4 7 800] ------- [7:0 0:0 32 4] [0 0] 1 0
f 72.441871632 _4_ RTR  --- 102 ack 60 [13a 4 7 800] ------- [7:0 0:0 31 3] [0 0] 1 0
r 72.444017188 _3_ RTR  --- 102 ack 60 [13a 3 4 800] ------- [7:0 0:0 31 3] [0 0] 2 0
f 72.444017188 _3_ RTR  --- 102 ack 60 [13a 3 4 800] ------- [7:0 0:0 30 2] [0 0] 2 0
r 72.446543111 _2_ RTR  --- 102 ack 60 [13a 2 3 800] ------- [7:0 0:0 30 2] [0 0] 3 0
f 72.446543111 _2_ RTR  --- 102 ack 60 [13a 2 3 800] ------- [7:0 0:0 29 1] [0 0] 3 0
r 72.449129001 _1_ RTR  --- 102 ack 60 [13a 1 2 800] ------- [7:0 0:0 29 1] [0 0] 4 0
f 72.449129001 _1_ RTR  --- 102 ack 60 [13a 1 2 800] ------- [7:0 0:0 28 0] [0 0] 4 0
r 72.451534673 _0_ AGT  --- 102 ack 60 [13a 0 1 800] ------- [7:0 0:0 28 0] [0 0] 5 0
s 72.451534673 _0_ AGT  --- 103 tcp 1040 [0 0 0 0] ------- [0:0 7:0 32 0] [1 0] 0 0
r 72.451534673 _0_ RTR  --- 103 tcp 1040 [0 0 0 0] ------- [0:0 7:0 32 0] [1 0] 0 0
s 72.451534673 _0_ RTR  --- 103 tcp 1060 [0 0 0 0] ------- [0:0 7:0 32 1] [1 0] 0 0
r 72.461700346 _1_ RTR  --- 103 tcp 1060 [13a 1 0 800] ------- [0:0 7:0 32 1] [1 0] 1 0
f 72.461700346 _1_ RTR  --- 103 tcp 1060 [13a 1 0 800] ------- [0:0 7:0 31 2] [1 0] 1 0
r 72.471706236 _2_ RTR  --- 103 tcp 1060 [13a 2 1 800] ------- [0:0 7:0 31 2] [1 0] 2 0
f 72.471706236 _2_ RTR  --- 103 tcp 1060 [13a 2 1 800] ------- [0:0 7:0 30 3] [1 0] 2 0
r 72.481732159 _3_ RTR  --- 103 tcp 1060 [13a 3 2 800] ------- [0:0 7:0 30 3] [1 0] 3 0
f 72.481732159 _3_ RTR  --- 103 tcp 1060 [13a 3 2 800] ------- [0:0 7:0 29 4] [1 0] 3 0
r 72.491717715 _4_ RTR  --- 103 tcp 1060 [13a 4 3 800] ------- [0:0 7:0 29 4] [1 0] 4 0
f 72.491717715 _4_ RTR  --- 103 tcp 1060 [13a 4 3 800] ------- [0:0 7:0 28 7] [1 0] 4 0
r 72.502123954 _7_ AGT  --- 103 tcp 1060 [13a 7 4 800] ------- [0:0 7:0 28 7] [1 0] 5 0
s 72.502123954 _7_ AGT  --- 104 ack 40 [0 0 0 0] ------- [7:0 0:0 32 0] [1 0] 0 0
r 72.502123954 _7_ RTR  --- 104 ack 40 [0 0 0 0] ------- [7:0 0:0 32 0] [1 0] 0 0
s 72.502123954 _7_ RTR  --- 104 ack 60 [0 0 0 0] ------- [7:0 0:0 32 4] [1 0] 0 0
r 72.504570193 _4_ RTR  --- 104 ack 60 [13a 4 7 800] ------- [7:0 0:0 32 4] [1 0] 1 0
f 72.504570193 _4_ RTR  --- 104 ack 60 [13a 4 7 800] ------- [7:0 0:0 31 3] [1 0] 1 0
r 72.507155749 _3_ RTR  --- 104 ack 60 [13a 3 4 800] ------- [7:0 0:0 31 3] [1 0] 2 0
f 72.507155749 _3_ RTR  --- 104 ack 60 [13a 3 4 800] ------- [7:0 0:0 30 2] [1 0] 2 0
r 72.509381672 _2_ RTR  --- 104 ack 60 [13a 2 3 800] ------- [7:0 0:0 30 2] [1 0] 3 0
f 72.509381672 _2_ RTR  --- 104 ack 60 [13a 2 3 800] ------- [7:0 0:0 29 1] [1 0] 3 0
r 72.511587562 _1_ RTR  --- 104 ack 60 [13a 1 2 800] ------- [7:0 0:0 29 1] [1 0] 4 0
f 72.511587562 _1_ RTR  --- 104 ack 60 [13a 1 2 800] ------- [7:0 0:0 28 0] [1 0] 4 0
r 72.513813235 _0_ AGT  --- 104 ack 60 [13a 0 1 800] ------- [7:0 0:0 28 0] [1 0] 5 0
s 72.513813235 _0_ AGT  --- 105 tcp 1040 [0 0 0 0] ------- [0:0 7:0 32 0] [2 0] 0 0
r 72.513813235 _0_ RTR  --- 105 tcp 1040 [0 0 0 0] ------- [0:0 7:0 32 0] [2 0] 0 0
s 72.513813235 _0_ RTR  --- 105 tcp 1060 [0 0 0 0] ------- [0:0 7:0 32 1] [2 0] 0 0
s 72.513813235 _0_ AGT  --- 106 tcp 1040 [0 0 0 0] ------- [0:0 7:0 32 0] [3 0] 0 0
r 72.513813235 _0_ RTR  --- 106 tcp 1040 [0 0 0 0] ------- [0:0 7:0 32 0] [3 0] 0 0
s 72.513813235 _0_ RTR  --- 106 tcp 1060 [0 0 0 0] ------- [0:0 7:0 32 1] [3 0] 0 0
r 72.524358908 _1_ RTR  --- 105 tcp 1060 [13a 1 0 800] ------- [0:0 7:0 32 1] [2 0] 1 0
f 72.524358908 _1_ RTR  --- 105 tcp 1060 [13a 1 0 800] ------- [0:0 7:0 31 2] [2 0] 1 0
r 72.534364798 _2_ RTR  --- 105 tcp 1060 [13a 2 1 800] ------- [0:0 7:0 31 2] [2 0] 2 0
f 72.534364798 _2_ RTR  --- 105 tcp 1060 [13a 2 1 800] ------- [0:0 7:0 30 3] [2 0] 2 0
r 72.544950720 _3_ RTR  --- 105 tcp 1060 [13a 3 2 800] ------- [0:0 7:0 30 3] [2 0] 3 0
f 72.544950720 _3_ RTR  --- 105 tcp 1060 [13a 3 2 800] ------- [0:0 7:0 29 4] [2 0] 3 0
r 72.555076276 _4_ RTR  --- 105 tcp 1060 [13a 4 3 800] ------- [0:0 7:0 29 4] [2 0] 4 0
f 72.555076276 _4_ RTR  --- 105 tcp 1060 [13a 4 3 800] ------- [0:0 7:0 28 7] [2 0] 4 0
r 72.565262515 _7_ AGT  --- 105 tcp 1060 [13a 7 4 800] ------- [0:0 7:0 28 7] [2 0] 5 0
s 72.565262515 _7_ AGT  --- 107 ack 40 [0 0 0 0] ------- [7:0 0:0 32 0] [2 0] 0 0
r 72.565262515 _7_ RTR  --- 107 ack 40 [0 0 0 0] ------- [7:0 0:0 32 0] [2 0] 0 0
s 72.565262515 _7_ RTR  --- 107 ack 60 [0 0 0 0] ------- [7:0 0:0 32 4] [2 0] 0 0
r 72.567288755 _4_ RTR  --- 107 ack 60 [13a 4 7 800] ------- [7:0 0:0 32 4] [2 0] 1 0
f 72.567288755 _4_ RTR  --- 107 ack 60 [13a 4 7 800] ------- [7:0 0:0 31 3] [2 0] 1 0
r 72.569774311 _3_ RTR  --- 107 ack 60 [13a 3 4 800] ------- [7:0 0:0 31 3] [2 0] 2 0
f 72.569774311 _3_ RTR  --- 107 ack 60 [13a 3 4 800] ------- [7:0 0:0 30 2] [2 0] 2 0
r 72.572300233 _2_ RTR  --- 107 ack 60 [13a 2 3 800] ------- [7:0 0:0 30 2] [2 0] 3 0
f 72.572300233 _2_ RTR  --- 107 ack 60 [13a 2 3 800] ------- [7:0 0:0 29 1] [2 0] 3 0
r 72.574366123 _1_ RTR  --- 107 ack 60 [13a 1 2 800] ------- [7:0 0:0 29 1] [2 0] 4 0
f 72.574366123 _1_ RTR  --- 107 ack 60 [13a 1 2 800] ------- [7:0 0:0 28 0] [2 0] 4 0
r 72.576551796 _0_ AGT  --- 107 ack 60 [13a 0 1 800] ------- [7:0 0:0 28 0] [2 0] 5 0
s 72.576551796 _0_ AGT  --- 108 tcp 1040 [0 0 0 0] ------- [0:0 7:0 32 0] [4 0] 0 0
r 72.576551796 _0_ RTR  --- 108 tcp 1040 [0 0 0 0] ------- [0:0 7:0 32 0] [4 0] 0 0
s 72.576551796 _0_ RTR  --- 108 tcp 1060 [0 0 0 0] ------- [0:0 7:0 32 1] [4 0] 0 0
r 72.591397469 _1_ RTR  --- 106 tcp 1060 [13a 1 0 800] ------- [0:0 7:0 32 1] [3 0] 1 0
f 72.591397469 _1_ RTR  --- 106 tcp 1060 [13a 1 0 800] ------- [0:0 7:0 31 2] [3 0] 1 0
r 72.601543699 _1_ RTR  --- 108 tcp 1060 [13a 1 0 800] ------- [0:0 7:0 32 1] [4 0] 1 0
f 72.601543699 _1_ RTR  --- 108 tcp 1060 [13a 1 0 800] ------- [0:0 7:0 31 2] [4 0] 1 0
r 72.611769589 _2_ RTR  --- 106 tcp 1060 [13a 2 1 800] ------- [0:0 7:0 31 2] [3 0] 2 0
f 72.611769589 _2_ RTR  --- 106 tcp 1060 [13a 2 1 800] ------- [0:0 7:0 30 3] [3 0] 2 0
r 72.621776109 _2_ RTR  --- 108 tcp 1060 [13a 2 1 800] ------- [0:0 7:0 31 2] [4 0] 2 0
f 72.621776109 _2_ RTR  --- 108 tcp 1060 [13a 2 1 800] ------- [0:0 7:0 30 3] [4 0] 2 0
r 72.631922032 _3_ RTR  --- 106 tcp 1060 [13a 3 2 800] ------- [0:0 7:0 30 3] [3 0] 3 0
f 72.631922032 _3_ RTR  --- 106 tcp 1060 [13a 3 2 800] ------- [0:0 7:0 29 4] [3 0] 3 0