n -t * -s 0  -x 602 -y 467 -Z 0 -z 125  -v circle -c black
n -t * -s 1  -x 743 -y 557 -Z 0 -z 125  -v circle -c black
n -t * -s 2  -x 932 -y 556 -Z 0 -z 125  -v circle -c black
n -t * -s 3  -x 1124 -y 566 -Z 0 -z 125  -v circle -c black
n -t * -s 4  -x 1268 -y 507 -Z 0 -z 125  -v circle -c black
n -t * -s 5  -x 752 -y 302 -Z 0 -z 125  -v circle -c black
n -t * -s 6  -x 968 -y 300 -Z 0 -z 125  -v circle -c black
n -t * -s 7  -x 1209 -y 291 -Z 0 -z 125  -v circle -c black
V -t * -v 1.0a5 -a 0
W -t * -x 1000 -y 1000
A -t * -n 1 -p 0 -o 0x7fffffff -c 30 -a 1
A -t * -h 1 -m 1073741823 -s 0
+ -t 0.034797973 -s 1 -d -1 -p message -e 32 -c 2 -a 0 -i 0 -k RTR 
- -t 0.034797973 -s 1 -d -1 -p message -e 32 -c 2 -a 0 -i 0 -k RTR
h -t 0.034797973 -s 1 -d -1 -p message -e 32 -c 2 -a 0 -i 0 -k RTR
r -t 0.035858530 -s 0 -d -1 -p message -e 32 -c 2 -a 0 -i 0 -k RTR
r -t 0.035858603 -s 2 -d -1 -p message -e 32 -c 2 -a 0 -i 0 -k RTR
+ -t 0.176673288 -s 2 -d -1 -p message -e 32 -c 2 -a 0 -i 1 -k RTR 
- -t 0.176673288 -s 2 -d -1 -p message -e 32 -c 2 -a 0 -i 1 -k RTR
h -t 0.176673288 -s 2 -d -1 -p message -e 32 -c 2 -a 0 -i 1 -k RTR
r -t 0.177853918 -s 1 -d -1 -p message -e 32 -c 2 -a 0 -i 1 -k RTR
r -t 0.177853929 -s 3 -d -1 -p message -e 32 -c 2 -a 0 -i 1 -k RTR
+ -t 0.473440071 -s 7 -d -1 -p message -e 32 -c 2 -a 0 -i 2 -k RTR 
- -t 0.473440071 -s 7 -d -1 -p message -e 32 -c 2 -a 0 -i 2 -k RTR
h -t 0.473440071 -s 7 -d -1 -p message -e 32 -c 2 -a 0 -i 2 -k RTR
r -t 0.474600817 -s 4 -d -1 -p message -e 32 -c 2 -a 0 -i 2 -k RTR
r -t 0.474600875 -s 6 -d -1 -p message -e 32 -c 2 -a 0 -i 2 -k RTR
+ -t 0.629410954 -s 5 -d -1 -p message -e 32 -c 2 -a 0 -i 3 -k RTR 
- -t 0.629410954 -s 5 -d -1 -p message -e 32 -c 2 -a 0 -i 3 -k RTR
h -t 0.629410954 -s 5 -d -1 -p message -e 32 -c 2 -a 0 -i 3 -k RTR
r -t 0.630251674 -s 6 -d -1 -p message -e 32 -c 2 -a 0 -i 3 -k RTR
r -t 0.630251697 -s 0 -d -1 -p message -e 32 -c 2 -a 0 -i 3 -k RTR
+ -t 0.887007923 -s 3 -d -1 -p message -e 32 -c 2 -a 0 -i 4 -k RTR 
- -t 0.887007923 -s 3 -d -1 -p message -e 32 -c 2 -a 0 -i 4 -k RTR
h -t 0.887007923 -s 3 -d -1 -p message -e 32 -c 2 -a 0 -i 4 -k RTR
r -t 0.888408442 -s 4 -d -1 -p message -e 32 -c 2 -a 0 -i 4 -k RTR
r -t 0.888408564 -s 2 -d -1 -p message -e 32 -c 2 -a 0 -i 4 -k RTR
+ -t 1.113933027 -s 0 -d -1 -p message -e 32 -c 2 -a 0 -i 5 -k RTR 
- -t 1.113933027 -s 0 -d -1 -p message -e 32 -c 2 -a 0 -i 5 -k RTR
h -t 1.113933027 -s 0 -d -1 -p message -e 32 -c 2 -a 0 -i 5 -k RTR
r -t 1.114793584 -s 1 -d -1 -p message -e 32 -c 2 -a 0 -i 5 -k RTR
r -t 1.114793770 -s 5 -d -1 -p message -e 32 -c 2 -a 0 -i 5 -k RTR
+ -t 1.605933226 -s 4 -d -1 -p message -e 32 -c 2 -a 0 -i 6 -k RTR 
- -t 1.605933226 -s 4 -d -1 -p message -e 32 -c 2 -a 0 -i 6 -k RTR
h -t 1.605933226 -s 4 -d -1 -p message -e 32 -c 2 -a 0 -i 6 -k RTR
r -t 1.606833745 -s 3 -d -1 -p message -e 32 -c 2 -a 0 -i 6 -k RTR
r -t 1.606833972 -s 7 -d -1 -p message -e 32 -c 2 -a 0 -i 6 -k RTR
+ -t 1.636994178 -s 6 -d -1 -p message -e 32 -c 2 -a 0 -i 7 -k RTR 
- -t 1.636994178 -s 6 -d -1 -p message -e 32 -c 2 -a 0 -i 7 -k RTR
h -t 1.636994178 -s 6 -d -1 -p message -e 32 -c 2 -a 0 -i 7 -k RTR
r -t 1.638334898 -s 5 -d -1 -p message -e 32 -c 2 -a 0 -i 7 -k RTR
r -t 1.638334982 -s 7 -d -1 -p message -e 32 -c 2 -a 0 -i 7 -k RTR
+ -t 10.000000000 -s 0 -d -1 -p tcp -e 40 -c 2 -a 0 -i 8 -k AGT 
- -t 10.000000000 -s 0 -d -1 -p tcp -e 40 -c 2 -a 0 -i 8 -k AGT
h -t 10.000000000 -s 0 -d -1 -p tcp -e 40 -c 2 -a 0 -i 8 -k AGT
+ -t 12.036978916 -s 2 -d -1 -p message -e 32 -c 2 -a 0 -i 10 -k RTR 
- -t 12.036978916 -s 2 -d -1 -p message -e 32 -c 2 -a 0 -i 10 -k RTR
h -t 12.036978916 -s 2 -d -1 -p message -e 32 -c 2 -a 0 -i 10 -k RTR
r -t 12.037859546 -s 1 -d -1 -p message -e 32 -c 2 -a 0 -i 10 -k RTR
r -t 12.037859557 -s 3 -d -1 -p message -e 32 -c 2 -a 0 -i 10 -k RTR
+ -t 12.044772009 -s 0 -d -1 -p message -e 32 -c 2 -a 0 -i 9 -k RTR 
- -t 12.044772009 -s 0 -d -1 -p message -e 32 -c 2 -a 0 -i 9 -k RTR
h -t 12.044772009 -s 0 -d -1 -p message -e 32 -c 2 -a 0 -i 9 -k RTR
r -t 12.045932566 -s 1 -d -1 -p message -e 32 -c 2 -a 0 -i 9 -k RTR
r -t 12.045932752 -s 5 -d -1 -p message -e 32 -c 2 -a 0 -i 9 -k RTR
+ -t 12.179084953 -s 1 -d -1 -p message -e 32 -c 2 -a 0 -i 11 -k RTR 
- -t 12.179084953 -s 1 -d -1 -p message -e 32 -c 2 -a 0 -i 11 -k RTR
h -t 12.179084953 -s 1 -d -1 -p message -e 32 -c 2 -a 0 -i 11 -k RTR
r -t 12.180185511 -s 0 -d -1 -p message -e 32 -c 2 -a 0 -i 11 -k RTR
r -t 12.180185583 -s 2 -d -1 -p message -e 32 -c 2 -a 0 -i 11 -k RTR
+ -t 12.184540168 -s 3 -d -1 -p message -e 32 -c 2 -a 0 -i 12 -k RTR 
- -t 12.184540168 -s 3 -d -1 -p message -e 32 -c 2 -a 0 -i 12 -k RTR
h -t 12.184540168 -s 3 -d -1 -p message -e 32 -c 2 -a 0 -i 12 -k RTR
r -t 12.185360687 -s 4 -d -1 -p message -e 32 -c 2 -a 0 -i 12 -k RTR
r -t 12.185360809 -s 2 -d -1 -p message -e 32 -c 2 -a 0 -i 12 -k RTR
+ -t 12.377341447 -s 7 -d -1 -p message -e 32 -c 2 -a 0 -i 13 -k RTR 
- -t 12.377341447 -s 7 -d -1 -p message -e 32 -c 2 -a 0 -i 13 -k RTR
h -t 12.377341447 -s 7 -d -1 -p message -e 32 -c 2 -a 0 -i 13 -k RTR
r -t 12.378382193 -s 4 -d -1 -p message -e 32 -c 2 -a 0 -i 13 -k RTR
r -t 12.378382251 -s 6 -d -1 -p message -e 32 -c 2 -a 0 -i 13 -k RTR
+ -t 12.440728958 -s 1 -d -1 -p message -e 44 -c 2 -a 0 -i 14 -k RTR 
- -t 12.440728958 -s 1 -d -1 -p message -e 44 -c 2 -a 0 -i 14 -k RTR
h -t 12.440728958 -s 1 -d -1 -p message -e 44 -c 2 -a 0 -i 14 -k RTR
r -t 12.441885516 -s 0 -d -1 -p message -e 44 -c 2 -a 0 -i 14 -k RTR
r -t 12.441885588 -s 2 -d -1 -p message -e 44 -c 2 -a 0 -i 14 -k RTR
+ -t 12.637978631 -s 6 -d -1 -p message -e 32 -c 2 -a 0 -i 17 -k RTR 
- -t 12.637978631 -s 6 -d -1 -p message -e 32 -c 2 -a 0 -i 17 -k RTR
h -t 12.637978631 -s 6 -d -1 -p message -e 32 -c 2 -a 0 -i 17 -k RTR
r -t 12.638819351 -s 5 -d -1 -p message -e 32 -c 2 -a 0 -i 17 -k RTR
r -t 12.638819435 -s 7 -d -1 -p message -e 32 -c 2 -a 0 -i 17 -k RTR
+ -t 12.845540630 -s 5 -d -1 -p message -e 32 -c 2 -a 0 -i 18 -k RTR 
- -t 12.845540630 -s 5 -d -1 -p message -e 32 -c 2 -a 0 -i 18 -k RTR
h -t 12.845540630 -s 5 -d -1 -p message -e 32 -c 2 -a 0 -i 18 -k RTR
r -t 12.846661350 -s 6 -d -1 -p message -e 32 -c 2 -a 0 -i 18 -k RTR
r -t 12.846661373 -s 0 -d -1 -p message -e 32 -c 2 -a 0 -i 18 -k RTR
+ -t 12.888909776 -s 4 -d -1 -p message -e 32 -c 2 -a 0 -i 19 -k RTR 
- -t 12.888909776 -s 4 -d -1 -p message -e 32 -c 2 -a 0 -i 19 -k RTR
h -t 12.888909776 -s 4 -d -1 -p message -e 32 -c 2 -a 0 -i 19 -k RTR
r -t 12.889850295 -s 3 -d -1 -p message -e 32 -c 2 -a 0 -i 19 -k RTR
r -t 12.889850523 -s 7 -d -1 -p message -e 32 -c 2 -a 0 -i 19 -k RTR
+ -t 13.000000000 -s 0 -d -1 -p tcp -e 40 -c 2 -a 0 -i 20 -k AGT 
- -t 13.000000000 -s 0 -d -1 -p tcp -e 40 -c 2 -a 0 -i 20 -k AGT
h -t 13.000000000 -s 0 -d -1 -p tcp -e 40 -c 2 -a 0 -i 20 -k AGT
+ -t 13.043209514 -s 2 -d -1 -p message -e 32 -c 2 -a 0 -i 22 -k RTR 
- -t 13.043209514 -s 2 -d -1 -p message -e 32 -c 2 -a 0 -i 22 -k RTR
h -t 13.043209514 -s 2 -d -1 -p message -e 32 -c 2 -a 0 -i 22 -k RTR
r -t 13.044110144 -s 1 -d -1 -p message -e 32 -c 2 -a 0 -i 22 -k RTR
r -t 13.044110155 -s 3 -d -1 -p message -e 32 -c 2 -a 0 -i 22 -k RTR
+ -t 13.274501538 -s 0 -d -1 -p message -e 32 -c 2 -a 0 -i 23 -k RTR 
- -t 13.274501538 -s 0 -d -1 -p message -e 32 -c 2 -a 0 -i 23 -k RTR
h -t 13.274501538 -s 0 -d -1 -p message -e 32 -c 2 -a 0 -i 23 -k RTR
r -t 13.275662096 -s 1 -d -1 -p message -e 32 -c 2 -a 0 -i 23 -k RTR
r -t 13.275662282 -s 5 -d -1 -p message -e 32 -c 2 -a 0 -i 23 -k RTR
+ -t 13.591432884 -s 6 -d -1 -p message -e 32 -c 2 -a 0 -i 25 -k RTR 
- -t 13.591432884 -s 6 -d -1 -p message -e 32 -c 2 -a 0 -i 25 -k RTR
h -t 13.591432884 -s 6 -d -1 -p message -e 32 -c 2 -a 0 -i 25 -k RTR
r -t 13.592833604 -s 5 -d -1 -p message -e 32 -c 2 -a 0 -i 25 -k RTR
r -t 13.592833688 -s 7 -d -1 -p message -e 32 -c 2 -a 0 -i 25 -k RTR
+ -t 13.612417831 -s 3 -d -1 -p message -e 44 -c 2 -a 0 -i 26 -k RTR 
- -t 13.612417831 -s 3 -d -1 -p message -e 44 -c 2 -a 0 -i 26 -k RTR
h -t 13.612417831 -s 3 -d -1 -p message -e 44 -c 2 -a 0 -i 26 -k RTR
r -t 13.613874349 -s 4 -d -1 -p message -e 44 -c 2 -a 0 -i 26 -k RTR
r -t 13.613874471 -s 2 -d -1 -p message -e 44 -c 2 -a 0 -i 26 -k RTR
+ -t 13.614989796 -s 7 -d -1 -p message -e 32 -c 2 -a 0 -i 27 -k RTR 
- -t 13.614989796 -s 7 -d -1 -p message -e 32 -c 2 -a 0 -i 27 -k RTR
h -t 13.614989796 -s 7 -d -1 -p message -e 32 -c 2 -a 0 -i 27 -k RTR
r -t 13.616110542 -s 4 -d -1 -p message -e 32 -c 2 -a 0 -i 27 -k RTR
r -t 13.616110600 -s 6 -d -1 -p message -e 32 -c 2 -a 0 -i 27 -k RTR
+ -t 13.831960294 -s 2 -d -1 -p message -e 44 -c 2 -a 0 -i 28 -k RTR 
- -t 13.831960294 -s 2 -d -1 -p message -e 44 -c 2 -a 0 -i 28 -k RTR
h -t 13.831960294 -s 2 -d -1 -p message -e 44 -c 2 -a 0 -i 28 -k RTR
r -t 13.833456925 -s 1 -d -1 -p message -e 44 -c 2 -a 0 -i 28 -k RTR
r -t 13.833456935 -s 3 -d -1 -p message -e 44 -c 2 -a 0 -i 28 -k RTR
+ -t 14.610156117 -s 7 -d -1 -p message -e 32 -c 2 -a 0 -i 30 -k RTR 
- -t 14.610156117 -s 7 -d -1 -p message -e 32 -c 2 -a 0 -i 30 -k RTR
h -t 14.610156117 -s 7 -d -1 -p message -e 32 -c 2 -a 0 -i 30 -k RTR
r -t 14.611136863 -s 4 -d -1 -p message -e 32 -c 2 -a 0 -i 30 -k RTR
r -t 14.611136920 -s 6 -d -1 -p message -e 32 -c 2 -a 0 -i 30 -k RTR
+ -t 14.728825309 -s 3 -d -1 -p message -e 44 -c 2 -a 0 -i 31 -k RTR 
- -t 14.728825309 -s 3 -d -1 -p message -e 44 -c 2 -a 0 -i 31 -k RTR
h -t 14.728825309 -s 3 -d -1 -p message -e 44 -c 2 -a 0 -i 31 -k RTR
r -t 14.729901828 -s 4 -d -1 -p message -e 44 -c 2 -a 0 -i 31 -k RTR
r -t 14.729901950 -s 2 -d -1 -p message -e 44 -c 2 -a 0 -i 31 -k RTR
+ -t 16.245073764 -s 4 -d -1 -p message -e 32 -c 2 -a 0 -i 32 -k RTR 
- -t 16.245073764 -s 4 -d -1 -p message -e 32 -c 2 -a 0 -i 32 -k RTR
h -t 16.245073764 -s 4 -d -1 -p message -e 32 -c 2 -a 0 -i 32 -k RTR
r -t 16.246254283 -s 3 -d -1 -p message -e 32 -c 2 -a 0 -i 32 -k RTR
r -t 16.246254510 -s 7 -d -1 -p message -e 32 -c 2 -a 0 -i 32 -k RTR
+ -t 19.000000000 -s 0 -d -1 -p tcp -e 40 -c 2 -a 0 -i 33 -k AGT 
- -t 19.000000000 -s 0 -d -1 -p tcp -e 40 -c 2 -a 0 -i 33 -k AGT
h -t 19.000000000 -s 0 -d -1 -p tcp -e 40 -c 2 -a 0 -i 33 -k AGT
n -t 20.000000 -s 5 -x 752.000000 -y 302.000000 -U -78.026429 -V -62.544995 -T 3.229675
+ -t 24.039571747 -s 3 -d -1 -p message -e 32 -c 2 -a 0 -i 34 -k RTR 
- -t 24.039571747 -s 3 -d -1 -p message -e 32 -c 2 -a 0 -i 34 -k RTR
h -t 24.039571747 -s 3 -d -1 -p message -e 32 -c 2 -a 0 -i 34 -k RTR
r -t 24.040892266 -s 4 -d -1 -p message -e 32 -c 2 -a 0 -i 34 -k RTR
r -t 24.040892388 -s 2 -d -1 -p message -e 32 -c 2 -a 0 -i 34 -k RTR
+ -t 24.052086318 -s 5 -d -1 -p message -e 44 -c 2 -a 0 -i 35 -k RTR 
- -t 24.052086318 -s 5 -d -1 -p message -e 44 -c 2 -a 0 -i 35 -k RTR
h -t 24.052086318 -s 5 -d -1 -p message -e 44 -c 2 -a 0 -i 35 -k RTR
+ -t 24.184698125 -s 0 -d -1 -p message -e 56 -c 2 -a 0 -i 36 -k RTR 
- -t 24.184698125 -s 0 -d -1 -p message -e 56 -c 2 -a 0 -i 36 -k RTR
h -t 24.184698125 -s 0 -d -1 -p message -e 56 -c 2 -a 0 -i 36 -k RTR
+ -t 24.185520659 -s 4 -d -1 -p message -e 44 -c 2 -a 0 -i 37 -k RTR 
- -t 24.185520659 -s 4 -d -1 -p message -e 44 -c 2 -a 0 -i 37 -k RTR
h -t 24.185520659 -s 4 -d -1 -p message -e 44 -c 2 -a 0 -i 37 -k RTR
r -t 24.185710683 -s 1 -d -1 -p message -e 56 -c 2 -a 0 -i 36 -k RTR
r -t 24.186957177 -s 3 -d -1 -p message -e 44 -c 2 -a 0 -i 37 -k RTR
r -t 24.186957405 -s 7 -d -1 -p message -e 44 -c 2 -a 0 -i 37 -k RTR
+ -t 24.386951010 -s 1 -d -1 -p message -e 56 -c 2 -a 0 -i 38 -k RTR 
- -t 24.386951010 -s 1 -d -1 -p message -e 56 -c 2 -a 0 -i 38 -k RTR
h -t 24.386951010 -s 1 -d -1 -p message -e 56 -c 2 -a 0 -i 38 -k RTR
r -t 24.388023568 -s 0 -d -1 -p message -e 56 -c 2 -a 0 -i 38 -k RTR
r -t 24.388023640 -s 2 -d -1 -p message -e 56 -c 2 -a 0 -i 38 -k RTR
+ -t 24.643048759 -s 7 -d -1 -p message -e 44 -c 2 -a 0 -i 39 -k RTR 
- -t 24.643048759 -s 7 -d -1 -p message -e 44 -c 2 -a 0 -i 39 -k RTR
h -t 24.643048759 -s 7 -d -1 -p message -e 44 -c 2 -a 0 -i 39 -k RTR
r -t 24.643985505 -s 4 -d -1 -p message -e 44 -c 2 -a 0 -i 39 -k RTR
r -t 24.643985563 -s 6 -d -1 -p message -e 44 -c 2 -a 0 -i 39 -k RTR
+ -t 25.390606980 -s 1 -d -1 -p message -e 32 -c 2 -a 0 -i 40 -k RTR 
- -t 25.390606980 -s 1 -d -1 -p message -e 32 -c 2 -a 0 -i 40 -k RTR
h -t 25.390606980 -s 1 -d -1 -p message -e 32 -c 2 -a 0 -i 40 -k RTR
r -t 25.391807537 -s 0 -d -1 -p message -e 32 -c 2 -a 0 -i 40 -k RTR
r -t 25.391807610 -s 2 -d -1 -p message -e 32 -c 2 -a 0 -i 40 -k RTR
+ -t 25.617695737 -s 6 -d -1 -p message -e 56 -c 2 -a 0 -i 42 -k RTR 
- -t 25.617695737 -s 6 -d -1 -p message -e 56 -c 2 -a 0 -i 42 -k RTR
h -t 25.617695737 -s 6 -d -1 -p message -e 56 -c 2 -a 0 -i 42 -k RTR
r -t 25.619248541 -s 7 -d -1 -p message -e 56 -c 2 -a 0 -i 42 -k RTR
+ -t 25.622382299 -s 2 -d -1 -p message -e 44 -c 2 -a 0 -i 41 -k RTR 
- -t 25.622382299 -s 2 -d -1 -p message -e 44 -c 2 -a 0 -i 41 -k RTR
h -t 25.622382299 -s 2 -d -1 -p message -e 44 -c 2 -a 0 -i 41 -k RTR
r -t 25.623438929 -s 1 -d -1 -p message -e 44 -c 2 -a 0 -i 41 -k RTR
r -t 25.623438940 -s 3 -d -1 -p message -e 44 -c 2 -a 0 -i 41 -k RTR
+ -t 25.639214470 -s 7 -d -1 -p message -e 44 -c 2 -a 0 -i 43 -k RTR 
- -t 25.639214470 -s 7 -d -1 -p message -e 44 -c 2 -a 0 -i 43 -k RTR
h -t 25.639214470 -s 7 -d -1 -p message -e 44 -c 2 -a 0 -i 43 -k RTR
r -t 25.640231217 -s 4 -d -1 -p message -e 44 -c 2 -a 0 -i 43 -k RTR
r -t 25.640231274 -s 6 -d -1 -p message -e 44 -c 2 -a 0 -i 43 -k RTR
+ -t 25.707640288 -s 7 -d -1 -p message -e 56 -c 2 -a 0 -i 44 -k RTR 
- -t 25.707640288 -s 7 -d -1 -p message -e 56 -c 2 -a 0 -i 44 -k RTR
h -t 25.707640288 -s 7 -d -1 -p message -e 56 -c 2 -a 0 -i 44 -k RTR
r -t 25.709233035 -s 4 -d -1 -p message -e 56 -c 2 -a 0 -i 44 -k RTR
r -t 25.709233092 -s 6 -d -1 -p message -e 56 -c 2 -a 0 -i 44 -k RTR
+ -t 26.485453868 -s 2 -d -1 -p message -e 56 -c 2 -a 0 -i 45 -k RTR 
- -t 26.485453868 -s 2 -d -1 -p message -e 56 -c 2 -a 0 -i 45 -k RTR
h -t 26.485453868 -s 2 -d -1 -p message -e 56 -c 2 -a 0 -i 45 -k RTR
r -t 26.486606498 -s 1 -d -1 -p message -e 56 -c 2 -a 0 -i 45 -k RTR
r -t 26.486606509 -s 3 -d -1 -p message -e 56 -c 2 -a 0 -i 45 -k RTR
+ -t 27.352593285 -s 3 -d -1 -p message -e 56 -c 2 -a 0 -i 46 -k RTR 
- -t 27.352593285 -s 3 -d -1 -p message -e 56 -c 2 -a 0 -i 46 -k RTR
h -t 27.352593285 -s 3 -d -1 -p message -e 56 -c 2 -a 0 -i 46 -k RTR
r -t 27.353785803 -s 4 -d -1 -p message -e 56 -c 2 -a 0 -i 46 -k RTR
r -t 27.353785925 -s 2 -d -1 -p message -e 56 -c 2 -a 0 -i 46 -k RTR
+ -t 27.604550939 -s 6 -d -1 -p message -e 56 -c 2 -a 0 -i 47 -k RTR 
- -t 27.604550939 -s 6 -d -1 -p message -e 56 -c 2 -a 0 -i 47 -k RTR
h -t 27.604550939 -s 6 -d -1 -p message -e 56 -c 2 -a 0 -i 47 -k RTR
r -t 27.605803743 -s 7 -d -1 -p message -e 56 -c 2 -a 0 -i 47 -k RTR
+ -t 27.759180793 -s 5 -d -1 -p message -e 68 -c 2 -a 0 -i 48 -k RTR 
- -t 27.759180793 -s 5 -d -1 -p message -e 68 -c 2 -a 0 -i 48 -k RTR
h -t 27.759180793 -s 5 -d -1 -p message -e 68 -c 2 -a 0 -i 48 -k RTR
+ -t 27.907216497 -s 0 -d -1 -p message -e 44 -c 2 -a 0 -i 49 -k RTR 
- -t 27.907216497 -s 0 -d -1 -p message -e 44 -c 2 -a 0 -i 49 -k RTR
h -t 27.907216497 -s 0 -d -1 -p message -e 44 -c 2 -a 0 -i 49 -k RTR
r -t 27.908673054 -s 1 -d -1 -p message -e 44 -c 2 -a 0 -i 49 -k RTR
+ -t 30.801367120 -s 4 -d -1 -p message -e 44 -c 2 -a 0 -i 50 -k RTR 
- -t 30.801367120 -s 4 -d -1 -p message -e 44 -c 2 -a 0 -i 50 -k RTR
h -t 30.801367120 -s 4 -d -1 -p message -e 44 -c 2 -a 0 -i 50 -k RTR
r -t 30.802643639 -s 3 -d -1 -p message -e 44 -c 2 -a 0 -i 50 -k RTR
r -t 30.802643866 -s 7 -d -1 -p message -e 44 -c 2 -a 0 -i 50 -k RTR
+ -t 31.000000000 -s 0 -d -1 -p tcp -e 40 -c 2 -a 0 -i 51 -k AGT 
- -t 31.000000000 -s 0 -d -1 -p tcp -e 40 -c 2 -a 0 -i 51 -k AGT
h -t 31.000000000 -s 0 -d -1 -p tcp -e 40 -c 2 -a 0 -i 51 -k AGT
+ -t 36.047464830 -s 4 -d -1 -p message -e 44 -c 2 -a 0 -i 52 -k RTR 
- -t 36.047464830 -s 4 -d -1 -p message -e 44 -c 2 -a 0 -i 52 -k RTR
h -t 36.047464830 -s 4 -d -1 -p message -e 44 -c 2 -a 0 -i 52 -k RTR
r -t 36.048941349 -s 3 -d -1 -p message -e 44 -c 2 -a 0 -i 52 -k RTR
r -t 36.048941577 -s 7 -d -1 -p message -e 44 -c 2 -a 0 -i 52 -k RTR
+ -t 36.189497056 -s 1 -d -1 -p message -e 56 -c 2 -a 0 -i 53 -k RTR 
- -t 36.189497056 -s 1 -d -1 -p message -e 56 -c 2 -a 0 -i 53 -k RTR
h -t 36.189497056 -s 1 -d -1 -p message -e 56 -c 2 -a 0 -i 53 -k RTR
r -t 36.190549614 -s 0 -d -1 -p message -e 56 -c 2 -a 0 -i 53 -k RTR
r -t 36.190549686 -s 2 -d -1 -p message -e 56 -c 2 -a 0 -i 53 -k RTR
+ -t 36.193074459 -s 3 -d -1 -p message -e 32 -c 2 -a 0 -i 54 -k RTR 
- -t 36.193074459 -s 3 -d -1 -p message -e 32 -c 2 -a 0 -i 54 -k RTR
h -t 36.193074459 -s 3 -d -1 -p message -e 32 -c 2 -a 0 -i 54 -k RTR
+ -t 36.193511822 -s 7 -d -1 -p message -e 44 -c 2 -a 0 -i 55 -k RTR 
- -t 36.193511822 -s 7 -d -1 -p message -e 44 -c 2 -a 0 -i 55 -k RTR
h -t 36.193511822 -s 7 -d -1 -p message -e 44 -c 2 -a 0 -i 55 -k RTR
r -t 36.194394978 -s 4 -d -1 -p message -e 32 -c 2 -a 0 -i 54 -k RTR
r -t 36.194395100 -s 2 -d -1 -p message -e 32 -c 2 -a 0 -i 54 -k RTR
r -t 36.195646165 -s 4 -d -1 -p message -e 44 -c 2 -a 0 -i 55 -k RTR
r -t 36.195646222 -s 6 -d -1 -p message -e 44 -c 2 -a 0 -i 55 -k RTR
+ -t 36.389217798 -s 2 -d -1 -p message -e 44 -c 2 -a 0 -i 56 -k RTR 
- -t 36.389217798 -s 2 -d -1 -p message -e 44 -c 2 -a 0 -i 56 -k RTR
h -t 36.389217798 -s 2 -d -1 -p message -e 44 -c 2 -a 0 -i 56 -k RTR
r -t 36.390454428 -s 1 -d -1 -p message -e 44 -c 2 -a 0 -i 56 -k RTR
r -t 36.390454439 -s 3 -d -1 -p message -e 44 -c 2 -a 0 -i 56 -k RTR
+ -t 37.043035639 -s 4 -d -1 -p message -e 56 -c 2 -a 0 -i 57 -k RTR 
- -t 37.043035639 -s 4 -d -1 -p message -e 56 -c 2 -a 0 -i 57 -k RTR
h -t 37.043035639 -s 4 -d -1 -p message -e 56 -c 2 -a 0 -i 57 -k RTR
r -t 37.044348158 -s 3 -d -1 -p message -e 56 -c 2 -a 0 -i 57 -k RTR
r -t 37.044348386 -s 7 -d -1 -p message -e 56 -c 2 -a 0 -i 57 -k RTR
+ -t 37.400029647 -s 0 -d -1 -p message -e 32 -c 2 -a 0 -i 58 -k RTR 
- -t 37.400029647 -s 0 -d -1 -p message -e 32 -c 2 -a 0 -i 58 -k RTR
h -t 37.400029647 -s 0 -d -1 -p message -e 32 -c 2 -a 0 -i 58 -k RTR
r -t 37.401310204 -s 1 -d -1 -p message -e 32 -c 2 -a 0 -i 58 -k RTR
+ -t 37.631739383 -s 1 -d -1 -p message -e 56 -c 2 -a 0 -i 59 -k RTR 
- -t 37.631739383 -s 1 -d -1 -p message -e 56 -c 2 -a 0 -i 59 -k RTR
h -t 37.631739383 -s 1 -d -1 -p message -e 56 -c 2 -a 0 -i 59 -k RTR
r -t 37.632831941 -s 0 -d -1 -p message -e 56 -c 2 -a 0 -i 59 -k RTR
r -t 37.632832013 -s 2 -d -1 -p message -e 56 -c 2 -a 0 -i 59 -k RTR
+ -t 37.641529689 -s 6 -d -1 -p message -e 44 -c 2 -a 0 -i 60 -k RTR 
- -t 37.641529689 -s 6 -d -1 -p message -e 44 -c 2 -a 0 -i 60 -k RTR
h -t 37.641529689 -s 6 -d -1 -p message -e 44 -c 2 -a 0 -i 60 -k RTR
r -t 37.642786493 -s 7 -d -1 -p message -e 44 -c 2 -a 0 -i 60 -k RTR
+ -t 39.016832899 -s 1 -d -1 -p message -e 92 -c 2 -a 0 -i 61 -k RTR 
- -t 39.016832899 -s 1 -d -1 -p message -e 92 -c 2 -a 0 -i 61 -k RTR
h -t 39.016832899 -s 1 -d -1 -p message -e 92 -c 2 -a 0 -i 61 -k RTR
r -t 39.018353456 -s 0 -d -1 -p message -e 92 -c 2 -a 0 -i 61 -k RTR
r -t 39.018353529 -s 2 -d -1 -p message -e 92 -c 2 -a 0 -i 61 -k RTR
+ -t 40.076713181 -s 7 -d -1 -p message -e 80 -c 2 -a 0 -i 62 -k RTR 
- -t 40.076713181 -s 7 -d -1 -p message -e 80 -c 2 -a 0 -i 62 -k RTR
h -t 40.076713181 -s 7 -d -1 -p message -e 80 -c 2 -a 0 -i 62 -k RTR
r -t 40.078377928 -s 4 -d -1 -p message -e 80 -c 2 -a 0 -i 62 -k RTR
r -t 40.078377985 -s 6 -d -1 -p message -e 80 -c 2 -a 0 -i 62 -k RTR
+ -t 40.121333826 -s 2 -d -1 -p message -e 56 -c 2 -a 0 -i 63 -k RTR 
- -t 40.121333826 -s 2 -d -1 -p message -e 56 -c 2 -a 0 -i 63 -k RTR
h -t 40.121333826 -s 2 -d -1 -p message -e 56 -c 2 -a 0 -i 63 -k RTR
r -t 40.122626456 -s 1 -d -1 -p message -e 56 -c 2 -a 0 -i 63 -k RTR
r -t 40.122626467 -s 3 -d -1 -p message -e 56 -c 2 -a 0 -i 63 -k RTR
+ -t 41.018392386 -s 5 -d -1 -p message -e 68 -c 2 -a 0 -i 64 -k RTR 
- -t 41.018392386 -s 5 -d -1 -p message -e 68 -c 2 -a 0 -i 64 -k RTR
h -t 41.018392386 -s 5 -d -1 -p message -e 68 -c 2 -a 0 -i 64 -k RTR
+ -t 42.122949923 -s 3 -d -1 -p message -e 44 -c 2 -a 0 -i 65 -k RTR 
- -t 42.122949923 -s 3 -d -1 -p message -e 44 -c 2 -a 0 -i 65 -k RTR
h -t 42.122949923 -s 3 -d -1 -p message -e 44 -c 2 -a 0 -i 65 -k RTR
r -t 42.123966442 -s 4 -d -1 -p message -e 44 -c 2 -a 0 -i 65 -k RTR
r -t 42.123966564 -s 2 -d -1 -p message -e 44 -c 2 -a 0 -i 65 -k RTR
+ -t 42.250358738 -s 6 -d -1 -p message -e 56 -c 2 -a 0 -i 66 -k RTR 
- -t 42.250358738 -s 6 -d -1 -p message -e 56 -c 2 -a 0 -i 66 -k RTR
h -t 42.250358738 -s 6 -d -1 -p message -e 56 -c 2 -a 0 -i 66 -k RTR
r -t 42.251631542 -s 7 -d -1 -p message -e 56 -c 2 -a 0 -i 66 -k RTR
+ -t 42.465582188 -s 0 -d -1 -p message -e 44 -c 2 -a 0 -i 67 -k RTR 
- -t 42.465582188 -s 0 -d -1 -p message -e 44 -c 2 -a 0 -i 67 -k RTR
h -t 42.465582188 -s 0 -d -1 -p message -e 44 -c 2 -a 0 -i 67 -k RTR
r -t 42.466598746 -s 1 -d -1 -p message -e 44 -c 2 -a 0 -i 67 -k RTR
+ -t 44.861834786 -s 4 -d -1 -p message -e 44 -c 2 -a 0 -i 68 -k RTR 
- -t 44.861834786 -s 4 -d -1 -p message -e 44 -c 2 -a 0 -i 68 -k RTR
h -t 44.861834786 -s 4 -d -1 -p message -e 44 -c 2 -a 0 -i 68 -k RTR
r -t 44.863271305 -s 3 -d -1 -p message -e 44 -c 2 -a 0 -i 68 -k RTR
r -t 44.863271532 -s 7 -d -1 -p message -e 44 -c 2 -a 0 -i 68 -k RTR
+ -t 48.049296915 -s 7 -d -1 -p message -e 44 -c 2 -a 0 -i 69 -k RTR 
- -t 48.049296915 -s 7 -d -1 -p message -e 44 -c 2 -a 0 -i 69 -k RTR
h -t 48.049296915 -s 7 -d -1 -p message -e 44 -c 2 -a 0 -i 69 -k RTR
r -t 48.050813662 -s 4 -d -1 -p message -e 44 -c 2 -a 0 -i 69 -k RTR
r -t 48.050813719 -s 6 -d -1 -p message -e 44 -c 2 -a 0 -i 69 -k RTR
+ -t 48.194997101 -s 2 -d -1 -p message -e 56 -c 2 -a 0 -i 70 -k RTR 
- -t 48.194997101 -s 2 -d -1 -p message -e 56 -c 2 -a 0 -i 70 -k RTR
h -t 48.194997101 -s 2 -d -1 -p message -e 56 -c 2 -a 0 -i 70 -k RTR
r -t 48.196029731 -s 1 -d -1 -p message -e 56 -c 2 -a 0 -i 70 -k RTR
r -t 48.196029742 -s 3 -d -1 -p message -e 56 -c 2 -a 0 -i 70 -k RTR
+ -t 48.196950283 -s 6 -d -1 -p message -e 44 -c 2 -a 0 -i 71 -k RTR 
- -t 48.196950283 -s 6 -d -1 -p message -e 44 -c 2 -a 0 -i 71 -k RTR
h -t 48.196950283 -s 6 -d -1 -p message -e 44 -c 2 -a 0 -i 71 -k RTR
r -t 48.198287087 -s 7 -d -1 -p message -e 44 -c 2 -a 0 -i 71 -k RTR
+ -t 48.393760993 -s 3 -d -1 -p message -e 44 -c 2 -a 0 -i 72 -k RTR 
- -t 48.393760993 -s 3 -d -1 -p message -e 44 -c 2 -a 0 -i 72 -k RTR
h -t 48.393760993 -s 3 -d -1 -p message -e 44 -c 2 -a 0 -i 72 -k RTR
r -t 48.394817512 -s 4 -d -1 -p message -e 44 -c 2 -a 0 -i 72 -k RTR
r -t 48.394817634 -s 2 -d -1 -p message -e 44 -c 2 -a 0 -i 72 -k RTR
+ -t 49.398223857 -s 3 -d -1 -p message -e 44 -c 2 -a 0 -i 73 -k RTR 
- -t 49.398223857 -s 3 -d -1 -p message -e 44 -c 2 -a 0 -i 73 -k RTR
h -t 49.398223857 -s 3 -d -1 -p message -e 44 -c 2 -a 0 -i 73 -k RTR
r -t 49.399580375 -s 4 -d -1 -p message -e 44 -c 2 -a 0 -i 73 -k RTR
r -t 49.399580498 -s 2 -d -1 -p message -e 44 -c 2 -a 0 -i 73 -k RTR
+ -t 49.639843017 -s 0 -d -1 -p message -e 92 -c 2 -a 0 -i 74 -k RTR 
- -t 49.639843017 -s 0 -d -1 -p message -e 92 -c 2 -a 0 -i 74 -k RTR
h -t 49.639843017 -s 0 -d -1 -p message -e 92 -c 2 -a 0 -i 74 -k RTR
r -t 49.641383575 -s 1 -d -1 -p message -e 92 -c 2 -a 0 -i 74 -k RTR
+ -t 51.612606539 -s 7 -d -1 -p message -e 92 -c 2 -a 0 -i 75 -k RTR 
- -t 51.612606539 -s 7 -d -1 -p message -e 92 -c 2 -a 0 -i 75 -k RTR
h -t 51.612606539 -s 7 -d -1 -p message -e 92 -c 2 -a 0 -i 75 -k RTR
r -t 51.614327286 -s 4 -d -1 -p message -e 92 -c 2 -a 0 -i 75 -k RTR
r -t 51.614327343 -s 6 -d -1 -p message -e 92 -c 2 -a 0 -i 75 -k RTR
+ -t 51.963984537 -s 2 -d -1 -p message -e 92 -c 2 -a 0 -i 76 -k RTR 
- -t 51.963984537 -s 2 -d -1 -p message -e 92 -c 2 -a 0 -i 76 -k RTR
h -t 51.963984537 -s 2 -d -1 -p message -e 92 -c 2 -a 0 -i 76 -k RTR
r -t 51.965745167 -s 1 -d -1 -p message -e 92 -c 2 -a 0 -i 76 -k RTR
r -t 51.965745178 -s 3 -d -1 -p message -e 92 -c 2 -a 0 -i 76 -k RTR
+ -t 53.290537163 -s 1 -d -1 -p message -e 44 -c 2 -a 0 -i 77 -k RTR 
- -t 53.290537163 -s 1 -d -1 -p message -e 44 -c 2 -a 0 -i 77 -k RTR
h -t 53.290537163 -s 1 -d -1 -p message -e 44 -c 2 -a 0 -i 77 -k RTR
r -t 53.292013721 -s 0 -d -1 -p message -e 44 -c 2 -a 0 -i 77 -k RTR
r -t 53.292013793 -s 2 -d -1 -p message -e 44 -c 2 -a 0 -i 77 -k RTR
+ -t 53.890060802 -s 5 -d -1 -p message -e 68 -c 2 -a 0 -i 78 -k RTR 
- -t 53.890060802 -s 5 -d -1 -p message -e 68 -c 2 -a 0 -i 78 -k RTR
h -t 53.890060802 -s 5 -d -1 -p message -e 68 -c 2 -a 0 -i 78 -k RTR
+ -t 54.823709549 -s 6 -d -1 -p message -e 68 -c 2 -a 0 -i 79 -k RTR 
- -t 54.823709549 -s 6 -d -1 -p message -e 68 -c 2 -a 0 -i 79 -k RTR
h -t 54.823709549 -s 6 -d -1 -p message -e 68 -c 2 -a 0 -i 79 -k RTR
r -t 54.824998353 -s 7 -d -1 -p message -e 68 -c 2 -a 0 -i 79 -k RTR
+ -t 55.000000000 -s 0 -d -1 -p tcp -e 40 -c 2 -a 0 -i 80 -k AGT 
- -t 55.000000000 -s 0 -d -1 -p tcp -e 40 -c 2 -a 0 -i 80 -k AGT
h -t 55.000000000 -s 0 -d -1 -p tcp -e 40 -c 2 -a 0 -i 80 -k AGT
+ -t 55.962708548 -s 3 -d -1 -p message -e 68 -c 2 -a 0 -i 81 -k RTR 
- -t 55.962708548 -s 3 -d -1 -p message -e 68 -c 2 -a 0 -i 81 -k RTR
h -t 55.962708548 -s 3 -d -1 -p message -e 68 -c 2 -a 0 -i 81 -k RTR
r -t 55.963937066 -s 4 -d -1 -p message -e 68 -c 2 -a 0 -i 81 -k RTR
r -t 55.963937189 -s 2 -d -1 -p message -e 68 -c 2 -a 0 -i 81 -k RTR
+ -t 57.150980053 -s 4 -d -1 -p message -e 56 -c 2 -a 0 -i 82 -k RTR 
- -t 57.150980053 -s 4 -d -1 -p message -e 56 -c 2 -a 0 -i 82 -k RTR
h -t 57.150980053 -s 4 -d -1 -p message -e 56 -c 2 -a 0 -i 82 -k RTR
r -t 57.152192571 -s 3 -d -1 -p message -e 56 -c 2 -a 0 -i 82 -k RTR
r -t 57.152192799 -s 7 -d -1 -p message -e 56 -c 2 -a 0 -i 82 -k RTR
+ -t 57.847317359 -s 6 -d -1 -p message -e 32 -c 2 -a 0 -i 83 -k RTR 
- -t 57.847317359 -s 6 -d -1 -p message -e 32 -c 2 -a 0 -i 83 -k RTR
h -t 57.847317359 -s 6 -d -1 -p message -e 32 -c 2 -a 0 -i 83 -k RTR
r -t 57.848698163 -s 7 -d -1 -p message -e 32 -c 2 -a 0 -i 83 -k RTR
+ -t 57.851586539 -s 0 -d -1 -p message -e 32 -c 2 -a 0 -i 84 -k RTR 
- -t 57.851586539 -s 0 -d -1 -p message -e 32 -c 2 -a 0 -i 84 -k RTR
h -t 57.851586539 -s 0 -d -1 -p message -e 32 -c 2 -a 0 -i 84 -k RTR
r -t 57.852787096 -s 1 -d -1 -p message -e 32 -c 2 -a 0 -i 84 -k RTR
+ -t 58.279650088 -s 5 -d -1 -p message -e 44 -c 2 -a 0 -i 85 -k RTR 
- -t 58.279650088 -s 5 -d -1 -p message -e 44 -c 2 -a 0 -i 85 -k RTR
h -t 58.279650088 -s 5 -d -1 -p message -e 44 -c 2 -a 0 -i 85 -k RTR
+ -t 59.284180730 -s 5 -d -1 -p message -e 56 -c 2 -a 0 -i 86 -k RTR 
- -t 59.284180730 -s 5 -d -1 -p message -e 56 -c 2 -a 0 -i 86 -k RTR
h -t 59.284180730 -s 5 -d -1 -p message -e 56 -c 2 -a 0 -i 86 -k RTR
+ -t 60.054026266 -s 6 -d -1 -p message -e 104 -c 2 -a 0 -i 87 -k RTR 
- -t 60.054026266 -s 6 -d -1 -p message -e 104 -c 2 -a 0 -i 87 -k RTR
h -t 60.054026266 -s 6 -d -1 -p message -e 104 -c 2 -a 0 -i 87 -k RTR
r -t 60.055703070 -s 7 -d -1 -p message -e 104 -c 2 -a 0 -i 87 -k RTR
+ -t 60.199752181 -s 3 -d -1 -p message -e 104 -c 2 -a 0 -i 88 -k RTR 
- -t 60.199752181 -s 3 -d -1 -p message -e 104 -c 2 -a 0 -i 88 -k RTR
h -t 60.199752181 -s 3 -d -1 -p message -e 104 -c 2 -a 0 -i 88 -k RTR
r -t 60.201708699 -s 4 -d -1 -p message -e 104 -c 2 -a 0 -i 88 -k RTR
r -t 60.201708822 -s 2 -d -1 -p message -e 104 -c 2 -a 0 -i 88 -k RTR
+ -t 60.280419447 -s 5 -d -1 -p message -e 56 -c 2 -a 0 -i 89 -k RTR 
- -t 60.280419447 -s 5 -d -1 -p message -e 56 -c 2 -a 0 -i 89 -k RTR
h -t 60.280419447 -s 5 -d -1 -p message -e 56 -c 2 -a 0 -i 89 -k RTR
+ -t 60.399246454 -s 2 -d -1 -p message -e 44 -c 2 -a 0 -i 90 -k RTR 
- -t 60.399246454 -s 2 -d -1 -p message -e 44 -c 2 -a 0 -i 90 -k RTR
h -t 60.399246454 -s 2 -d -1 -p message -e 44 -c 2 -a 0 -i 90 -k RTR
r -t 60.400503084 -s 1 -d -1 -p message -e 44 -c 2 -a 0 -i 90 -k RTR
r -t 60.400503095 -s 3 -d -1 -p message -e 44 -c 2 -a 0 -i 90 -k RTR
+ -t 61.400334523 -s 2 -d -1 -p message -e 44 -c 2 -a 0 -i 91 -k RTR 
- -t 61.400334523 -s 2 -d -1 -p message -e 44 -c 2 -a 0 -i 91 -k RTR
h -t 61.400334523 -s 2 -d -1 -p message -e 44 -c 2 -a 0 -i 91 -k RTR
r -t 61.401851153 -s 1 -d -1 -p message -e 44 -c 2 -a 0 -i 91 -k RTR
r -t 61.401851164 -s 3 -d -1 -p message -e 44 -c 2 -a 0 -i 91 -k RTR
+ -t 64.041789914 -s 0 -d -1 -p message -e 92 -c 2 -a 0 -i 92 -k RTR 
- -t 64.041789914 -s 0 -d -1 -p message -e 92 -c 2 -a 0 -i 92 -k RTR
h -t 64.041789914 -s 0 -d -1 -p message -e 92 -c 2 -a 0 -i 92 -k RTR
r -t 64.043090472 -s 1 -d -1 -p message -e 92 -c 2 -a 0 -i 92 -k RTR
+ -t 64.396178939 -s 2 -d -1 -p message -e 104 -c 2 -a 0 -i 93 -k RTR 
- -t 64.396178939 -s 2 -d -1 -p message -e 104 -c 2 -a 0 -i 93 -k RTR
h -t 64.396178939 -s 2 -d -1 -p message -e 104 -c 2 -a 0 -i 93 -k RTR
r -t 64.398135569 -s 1 -d -1 -p message -e 104 -c 2 -a 0 -i 93 -k RTR
r -t 64.398135580 -s 3 -d -1 -p message -e 104 -c 2 -a 0 -i 93 -k RTR
+ -t 65.036485836 -s 7 -d -1 -p message -e 92 -c 2 -a 0 -i 94 -k RTR 
- -t 65.036485836 -s 7 -d -1 -p message -e 92 -c 2 -a 0 -i 94 -k RTR
h -t 65.036485836 -s 7 -d -1 -p message -e 92 -c 2 -a 0 -i 94 -k RTR
r -t 65.038266582 -s 4 -d -1 -p message -e 92 -c 2 -a 0 -i 94 -k RTR
r -t 65.038266639 -s 6 -d -1 -p message -e 92 -c 2 -a 0 -i 94 -k RTR
+ -t 66.425494300 -s 1 -d -1 -p message -e 56 -c 2 -a 0 -i 95 -k RTR 
- -t 66.425494300 -s 1 -d -1 -p message -e 56 -c 2 -a 0 -i 95 -k RTR
h -t 66.425494300 -s 1 -d -1 -p message -e 56 -c 2 -a 0 -i 95 -k RTR
r -t 66.426926857 -s 0 -d -1 -p message -e 56 -c 2 -a 0 -i 95 -k RTR
r -t 66.426926930 -s 2 -d -1 -p message -e 56 -c 2 -a 0 -i 95 -k RTR
+ -t 68.521922318 -s 5 -d -1 -p message -e 68 -c 2 -a 0 -i 96 -k RTR 
- -t 68.521922318 -s 5 -d -1 -p message -e 68 -c 2 -a 0 -i 96 -k RTR
h -t 68.521922318 -s 5 -d -1 -p message -e 68 -c 2 -a 0 -i 96 -k RTR
+ -t 70.557824962 -s 4 -d -1 -p message -e 80 -c 2 -a 0 -i 97 -k RTR 
- -t 70.557824962 -s 4 -d -1 -p message -e 80 -c 2 -a 0 -i 97 -k RTR
h -t 70.557824962 -s 4 -d -1 -p message -e 80 -c 2 -a 0 -i 97 -k RTR
r -t 70.559289481 -s 3 -d -1 -p message -e 80 -c 2 -a 0 -i 97 -k RTR
r -t 70.559289708 -s 7 -d -1 -p message -e 80 -c 2 -a 0 -i 97 -k RTR
+ -t 71.789686926 -s 6 -d -1 -p message -e 92 -c 2 -a 0 -i 98 -k RTR 